%VERSION  VERSION_STAMP = V0001.000  DATE = 02/24/25 18:10:13                  
%FLAG TITLE                                                                     
%FORMAT(20a4)                                                                   
default_name                                                                    
%FLAG POINTERS                                                                  
%FORMAT(10I8)                                                                   
      49      17      15      35      31      55      65      85       0       0
     243       2      35      55      85      24      49      34      22       0
       0       0       0       0       0       0       0       0      48       0
       0
%FLAG ATOM_NAME                                                                 
%FORMAT(20a4)                                                                   
MG  CAA OAC OAD OAE OAH OAI OAJ OAK OAS OAT PBE PBF PBG C5' O5' C4' O4' C3' O3' 
C2' O2' C1' N1  C2  S2  N3  C4  C5  C6  N6  N7  C8  N9  HAA1HAA2HAA3HAI H5' H5''
H4' H3' HO3'H2' HO2'H1' H61 H62 H8  
%FLAG CHARGE                                                                    
%FORMAT(5E16.8)                                                                 
  3.64446000E+01 -8.38225800E-01 -1.63089585E+01 -1.62451804E+01 -1.64911815E+01
 -1.63089585E+01 -1.48402411E+01 -1.62451804E+01 -1.64911815E+01 -1.52848652E+01
 -1.49204192E+01  2.90973686E+01  2.93889254E+01  3.15573791E+01  3.72463812E+00
 -1.09916914E+01  1.42316163E+00 -7.90118928E+00  1.20449403E+00 -1.12395146E+01
  1.42316163E+00 -1.13306261E+01  4.67948664E+00 -1.47965076E+01  1.34717464E+01
 -5.18242212E+00 -1.25369424E+01  7.83194454E+00 -3.17432466E+00  1.22490301E+01
 -1.67189602E+01 -1.11356475E+01  9.34257321E+00 -4.62846420E+00  1.03320441E+00
  1.03320441E+00  1.03320441E+00  7.76269980E+00  7.87203360E-01  7.87203360E-01
  9.23870610E-01  3.47499261E+00  6.94269630E+00  2.60032221E+00  7.58047680E+00
  1.34298351E+00  7.22149749E+00  7.22149749E+00  3.78659394E+00
%FLAG ATOMIC_NUMBER                                                             
%FORMAT(10I8)                                                                   
      12       6       8       8       8       8       8       8       8       8
       8      15      15      15       6       8       6       8       6       8
       6       8       6       7       6      16       7       6       6       6
       7       7       6       7       1       1       1       1       1       1
       1       1       1       1       1       1       1       1       1
%FLAG MASS                                                                      
%FORMAT(5E16.8)                                                                 
  2.43050000E+01  1.20100000E+01  1.60000000E+01  1.60000000E+01  1.60000000E+01
  1.60000000E+01  1.60000000E+01  1.60000000E+01  1.60000000E+01  1.60000000E+01
  1.60000000E+01  3.09700000E+01  3.09700000E+01  3.09700000E+01  1.20100000E+01
  1.60000000E+01  1.20100000E+01  1.60000000E+01  1.20100000E+01  1.60000000E+01
  1.20100000E+01  1.60000000E+01  1.20100000E+01  1.40100000E+01  1.20100000E+01
  3.20600000E+01  1.40100000E+01  1.20100000E+01  1.20100000E+01  1.20100000E+01
  1.40100000E+01  1.40100000E+01  1.20100000E+01  1.40100000E+01  1.00800000E+00
  1.00800000E+00  1.00800000E+00  1.00800000E+00  1.00800000E+00  1.00800000E+00
  1.00800000E+00  1.00800000E+00  1.00800000E+00  1.00800000E+00  1.00800000E+00
  1.00800000E+00  1.00800000E+00  1.00800000E+00  1.00800000E+00
%FLAG ATOM_TYPE_INDEX                                                           
%FORMAT(10I8)                                                                   
       1       2       3       3       3       3       4       3       3       5
       5       6       6       6       2       5       7       5       7       4
       7       4       7       8       9      10       8       9       9       9
      11       8       9      12      13      13      13      14      13      13
      13      13      14      13      14      15      16      16      17
%FLAG NUMBER_EXCLUDED_ATOMS                                                     
%FORMAT(10I8)                                                                   
       1       7       6       6       6       5       4       5       5       5
       5       2       6       1      11       6      14      14      13       7
      11       6      12      10      10       6       6       8       8       6
       3       3       3       3       2       1       1       1       2       1
       1       2       1       2       1       1       1       1       1
%FLAG NONBONDED_PARM_INDEX                                                      
%FORMAT(10I8)                                                                   
       1       2       4       7      11      16      22      29      37      46
      56      67      79      92     106     121     137       2       3       5
       8      12      17      23      30      38      47      57      68      80
      93     107     122     138       4       5       6       9      13      18
      24      31      39      48      58      69      81      94     108     123
     139       7       8       9      10      14      19      25      32      40
      49      59      70      82      95     109     124     140      11      12
      13      14      15      20      26      33      41      50      60      71
      83      96     110     125     141      16      17      18      19      20
      21      27      34      42      51      61      72      84      97     111
     126     142      22      23      24      25      26      27      28      35
      43      52      62      73      85      98     112     127     143      29
      30      31      32      33      34      35      36      44      53      63
      74      86      99     113     128     144      37      38      39      40
      41      42      43      44      45      54      64      75      87     100
     114     129     145      46      47      48      49      50      51      52
      53      54      55      65      76      88     101     115     130     146
      56      57      58      59      60      61      62      63      64      65
      66      77      89     102     116     131     147      67      68      69
      70      71      72      73      74      75      76      77      78      90
     103     117     132     148      79      80      81      82      83      84
      85      86      87      88      89      90      91     104     118     133
     149      92      93      94      95      96      97      98      99     100
     101     102     103     104     105     119     134     150     106     107
     108     109     110     111     112     113     114     115     116     117
     118     119     120     135     151     121     122     123     124     125
     126     127     128     129     130     131     132     133     134     135
     136     152     137     138     139     140     141     142     143     144
     145     146     147     148     149     150     151     152     153
%FLAG RESIDUE_LABEL                                                             
%FORMAT(20a4)                                                                   
MG  6AT 
%FLAG RESIDUE_POINTER                                                           
%FORMAT(10I8)                                                                   
       1       2
%FLAG BOND_FORCE_CONSTANT                                                       
%FORMAT(5E16.8)                                                                 
  3.32450000E+02  4.17790000E+02  4.17900000E+02  3.54250000E+02  3.29990000E+02
  3.29320000E+02  3.86490000E+02  2.13480000E+02  3.27700000E+02  3.16700000E+02
  3.00900000E+02  3.08600000E+02  2.82270000E+02  3.00900000E+02  3.87590000E+02
  5.73030000E+02  3.91880000E+02  1.84740000E+02  3.66810000E+02  4.04600000E+02
  3.31700000E+02  5.35510000E+02  3.30600000E+02  3.44220000E+02
%FLAG BOND_EQUIL_VALUE                                                          
%FORMAT(5E16.8)                                                                 
  1.38300000E+00  1.31710000E+00  1.38600000E+00  1.39860000E+00  1.38520000E+00
  1.38580000E+00  1.33920000E+00  1.78470000E+00  1.46300000E+00  1.42300000E+00
  1.53800000E+00  1.43200000E+00  1.42730000E+00  1.53800000E+00  1.61820000E+00
  1.48850000E+00  1.61440000E+00  1.84070000E+00  1.08210000E+00  1.01200000E+00
  1.09600000E+00  9.72500000E-01  1.09700000E+00  1.09690000E+00
%FLAG ANGLE_FORCE_CONSTANT                                                      
%FORMAT(5E16.8)                                                                 
  7.65100000E+01  6.74000000E+01  6.78200000E+01  6.83000000E+01  8.73200000E+01
  6.36700000E+01  8.35100000E+01  6.81700000E+01  7.15300000E+01  6.79300000E+01
  8.31500000E+01  7.27600000E+01  7.27000000E+01  6.23000000E+01  6.19000000E+01
  6.75000000E+01  6.55000000E+01  6.29000000E+01  6.80000000E+01  7.13000000E+01
  6.27000000E+01  6.80000000E+01  6.80000000E+01  6.29000000E+01  3.71200000E+01
  5.66400000E+01  1.02920000E+02  1.00300000E+02  1.02940000E+02  1.00560000E+02
  1.03760000E+02  9.27200000E+01  4.01000000E+01  3.56400000E+01  5.02000000E+01
  4.79400000E+01  4.88900000E+01  4.84000000E+01  4.20600000E+01  4.64000000E+01
  5.09000000E+01  4.74000000E+01  4.62000000E+01  5.08000000E+01  5.09000000E+01
  4.64000000E+01  5.62000000E+01  4.64000000E+01  8.00800000E+01
%FLAG ANGLE_EQUIL_VALUE                                                         
%FORMAT(5E16.8)                                                                 
  1.97257197E+00  2.12703367E+00  2.09980652E+00  2.11097664E+00  1.81811026E+00
  2.09474507E+00  1.89839544E+00  2.14570870E+00  2.21831443E+00  2.06839058E+00
  2.04622489E+00  2.22180509E+00  2.04098890E+00  2.17049239E+00  2.20714432E+00
  1.92317913E+00  1.97012850E+00  1.94621748E+00  1.88443280E+00  1.90293330E+00
  1.96314718E+00  1.88443280E+00  1.88443280E+00  1.94621748E+00  2.19073822E+00
  2.08916001E+00  1.77534968E+00  2.01480895E+00  1.77901487E+00  2.01009656E+00
  2.06455086E+00  1.78948685E+00  2.00922390E+00  1.89455572E+00  1.87291362E+00
  2.10888224E+00  2.18672396E+00  2.02580453E+00  1.89769731E+00  1.91218355E+00
  1.92440086E+00  1.87204096E+00  1.92370273E+00  1.91602327E+00  1.91253261E+00
  1.91218355E+00  1.92579712E+00  1.91218355E+00  1.92108473E+00
%FLAG DIHEDRAL_FORCE_CONSTANT                                                   
%FORMAT(5E16.8)                                                                 
  3.62500000E+00  4.80000000E+00  3.00000000E-01  4.75000000E+00  1.70000000E+00
  1.55555556E-01  0.00000000E+00  1.17500000E+00  1.44000000E-01  1.00000000E-01
  3.83000000E-01  6.50000000E-01  2.00000000E-01  2.50000000E-01  1.80000000E-01
  8.00000000E-01  3.95000000E+00  3.83333333E-01  3.52000000E+00  8.00000000E-01
  5.50000000E-01  4.00000000E-01  1.10000000E+00  1.66666667E-01  1.05000000E+00
  3.33333333E-01  2.50000000E-01  1.60000000E-01  0.00000000E+00  0.00000000E+00
  5.33333333E-01  9.90000000E-01  6.30000000E-01  6.90000000E-01
%FLAG DIHEDRAL_PERIODICITY                                                      
%FORMAT(5E16.8)                                                                 
  2.00000000E+00  2.00000000E+00  2.00000000E+00  2.00000000E+00  2.00000000E+00
  3.00000000E+00  2.00000000E+00  2.00000000E+00  3.00000000E+00  2.00000000E+00
  3.00000000E+00  2.00000000E+00  1.00000000E+00  2.00000000E+00  3.00000000E+00
  2.00000000E+00  1.00000000E+00  3.00000000E+00  2.00000000E+00  2.00000000E+00
  3.00000000E+00  2.00000000E+00  2.00000000E+00  3.00000000E+00  2.00000000E+00
  3.00000000E+00  1.00000000E+00  3.00000000E+00  3.00000000E+00  1.00000000E+00
  3.00000000E+00  1.00000000E+00  2.00000000E+00  3.00000000E+00
%FLAG DIHEDRAL_PHASE                                                            
%FORMAT(5E16.8)                                                                 
  3.14159400E+00  3.14159400E+00  3.14159400E+00  3.14159400E+00  3.14159400E+00
  0.00000000E+00  0.00000000E+00  0.00000000E+00  0.00000000E+00  3.14159400E+00
  0.00000000E+00  0.00000000E+00  3.14159400E+00  3.14159400E+00  0.00000000E+00
  0.00000000E+00  3.14159400E+00  0.00000000E+00  0.00000000E+00  0.00000000E+00
  0.00000000E+00  3.14159400E+00  3.14159400E+00  0.00000000E+00  3.14159400E+00
  0.00000000E+00  0.00000000E+00  0.00000000E+00  0.00000000E+00  0.00000000E+00
  0.00000000E+00  0.00000000E+00  3.14159400E+00  3.14159400E+00
%FLAG SCEE_SCALE_FACTOR                                                         
%FORMAT(5E16.8)                                                                 
  1.20000000E+00  1.20000000E+00  1.20000000E+00  1.20000000E+00  1.20000000E+00
  1.20000000E+00  1.20000000E+00  1.20000000E+00  1.20000000E+00  1.20000000E+00
  1.20000000E+00  1.20000000E+00  1.20000000E+00  1.20000000E+00  1.20000000E+00
  1.20000000E+00  1.20000000E+00  1.20000000E+00  1.20000000E+00  1.20000000E+00
  1.20000000E+00  1.20000000E+00  0.00000000E+00  1.20000000E+00  1.20000000E+00
  1.20000000E+00  1.20000000E+00  1.20000000E+00  1.20000000E+00  1.20000000E+00
  1.20000000E+00  1.20000000E+00  1.20000000E+00  1.20000000E+00
%FLAG SCNB_SCALE_FACTOR                                                         
%FORMAT(5E16.8)                                                                 
  2.00000000E+00  2.00000000E+00  2.00000000E+00  2.00000000E+00  2.00000000E+00
  2.00000000E+00  2.00000000E+00  2.00000000E+00  2.00000000E+00  2.00000000E+00
  2.00000000E+00  2.00000000E+00  2.00000000E+00  2.00000000E+00  2.00000000E+00
  2.00000000E+00  2.00000000E+00  2.00000000E+00  2.00000000E+00  2.00000000E+00
  2.00000000E+00  2.00000000E+00  0.00000000E+00  2.00000000E+00  2.00000000E+00
  2.00000000E+00  2.00000000E+00  2.00000000E+00  2.00000000E+00  2.00000000E+00
  2.00000000E+00  2.00000000E+00  2.00000000E+00  2.00000000E+00
%FLAG SOLTY                                                                     
%FORMAT(5E16.8)                                                                 
  0.00000000E+00  0.00000000E+00  0.00000000E+00  0.00000000E+00  0.00000000E+00
  0.00000000E+00  0.00000000E+00  0.00000000E+00  0.00000000E+00  0.00000000E+00
  0.00000000E+00  0.00000000E+00  0.00000000E+00  0.00000000E+00  0.00000000E+00
  0.00000000E+00  0.00000000E+00  0.00000000E+00  0.00000000E+00  0.00000000E+00
  0.00000000E+00  0.00000000E+00
%FLAG LENNARD_JONES_ACOEF                                                       
%FORMAT(5E16.8)                                                                 
  7.17063793E+03  9.64288684E+04  1.02073671E+06  5.43751523E+04  6.30925504E+05
  3.76435470E+05  6.52999564E+04  7.18991463E+05  4.37717034E+05  5.03152404E+05
  4.81533249E+04  5.42502534E+05  3.27367585E+05  3.78207390E+05  2.83662575E+05
  2.51902224E+05  2.48558450E+06  1.57866258E+06  1.77138677E+06  1.34566835E+06
  5.92702883E+06  9.75260064E+04  1.03184851E+06  6.37913494E+05  7.26877088E+05
  5.48478208E+05  2.51227948E+06  1.04308023E+06  8.76666218E+04  9.31115275E+05
  5.74782316E+05  6.55497149E+05  4.94433451E+05  2.26961936E+06  9.41257953E+05
  8.49322032E+05  7.80930671E+04  8.43969952E+05  5.17507491E+05  5.92438683E+05
  4.46121722E+05  2.06784094E+06  8.53193737E+05  7.69642101E+05  6.96551276E+05
  2.04099508E+05  2.09089895E+06  1.30884564E+06  1.48082758E+06  1.12086734E+06
  5.04212449E+06  2.11351845E+06  1.90820499E+06  1.73376823E+06  4.26366419E+06
  8.95967715E+04  9.84684600E+05  5.99897901E+05  6.89296946E+05  5.18220260E+05
  2.42464484E+06  9.95480466E+05  8.97750460E+05  8.11497350E+05  2.02752779E+06
  9.44293233E+05  8.96004985E+04  9.96191545E+05  6.04208667E+05  6.96017793E+05
  5.22690526E+05  2.46139748E+06  1.00713741E+06  9.08092643E+05  8.20152428E+05
  2.05449504E+06  9.53586341E+05  9.62429652E+05  4.95330573E+03  6.97998263E+04
  3.86646725E+04  4.69084694E+04  3.44374471E+04  1.84820254E+05  7.06006146E+04
  6.34160397E+04  5.63013422E+04  1.48672098E+05  6.43853349E+04  6.42436358E+04
  3.39005767E+03  7.87412914E+00  3.03553352E+02  1.15813907E+02  1.74176419E+02
  1.16469347E+02  1.05833478E+03  3.07630260E+02  2.72118326E+02  2.25372434E+02
  7.35778500E+02  2.40872585E+02  2.29317644E+02  4.36660257E+00  1.10360882E-05
  3.19969456E+03  4.80619274E+04  2.59855087E+04  3.19666529E+04  2.33261683E+04
  1.29617879E+05  4.86195279E+04  4.36276732E+04  3.85565555E+04  1.03252037E+05
  4.38980798E+04  4.36678042E+04  2.16218723E+03  2.07292270E+00  1.35510742E+03
  8.67366730E+01  2.23577481E+03  9.87857350E+02  1.36475542E+03  9.46795083E+02
  7.00727766E+03  2.26409483E+03  2.01475241E+03  1.71458823E+03  5.15374979E+03
  1.88178855E+03  1.82491629E+03  5.24570081E+01  2.61760843E-03  2.81680913E+01
  1.34728399E-01  4.63099517E+03  6.46910138E+04  3.59538577E+04  4.35368956E+04
  3.19887757E+04  1.70862239E+05  6.54320462E+04  5.87815925E+04  5.22195041E+04
  1.37628606E+05  5.97535946E+04  5.96470418E+04  3.17496391E+03  4.25484751E+00
  2.02982706E+03  5.02830284E+01  2.97255425E+03
%FLAG LENNARD_JONES_BCOEF                                                       
%FORMAT(5E16.8)                                                                 
  2.54487941E+01  1.37948626E+02  6.63431737E+02  1.11807382E+02  5.62969425E+02
  4.69350655E+02  1.09404790E+02  5.36620538E+02  4.51916854E+02  4.32634597E+02
  8.83093012E+01  4.38146883E+02  3.67361018E+02  3.52573684E+02  2.87011518E+02
  2.69321377E+02  1.25053147E+03  1.07567582E+03  1.01742664E+03  8.33544600E+02
  2.33259779E+03  1.39243106E+02  6.69494459E+02  5.68167388E+02  5.41546250E+02
  4.42179058E+02  1.26186814E+03  6.75612247E+02  1.27137508E+02  6.12468585E+02
  5.19385932E+02  4.95260330E+02  4.04310927E+02  1.15504682E+03  6.18067719E+02
  5.65406768E+02  1.21465972E+02  5.90251928E+02  4.98871431E+02  4.76608379E+02
  3.88758656E+02  1.11602383E+03  5.95658566E+02  5.44830041E+02  5.24668528E+02
  2.55326743E+02  1.20800124E+03  1.03157656E+03  9.79758754E+02  8.01230425E+02
  2.26594113E+03  1.21899948E+03  1.11546536E+03  1.07629402E+03  2.19459223E+03
  1.49010737E+02  7.30206155E+02  6.15165511E+02  5.88797748E+02  4.79881022E+02
  1.38408246E+03  7.36907417E+02  6.73934129E+02  6.48597119E+02  1.33303578E+03
  8.01323529E+02  1.56001330E+02  7.68900328E+02  6.46321327E+02  6.19405188E+02
  5.04545572E+02  1.45992477E+03  7.75965878E+02  7.09588248E+02  6.82622272E+02
  1.40479403E+03  8.43016687E+02  8.86629877E+02  2.07215651E+01  1.14981426E+02
  9.23664132E+01  9.08431526E+01  7.31636661E+01  2.26004082E+02  1.16065835E+02
  1.05935811E+02  1.01040256E+02  2.13489607E+02  1.23751804E+02  1.29412081E+02
  1.67944276E+01  5.69619547E-01  5.22789272E+00  3.48534600E+00  3.81654050E+00
  2.93355636E+00  1.17912994E+01  5.28230309E+00  4.78443613E+00  4.40751799E+00
  1.03548588E+01  5.21867651E+00  5.33073545E+00  4.15568027E-01  4.55498033E-04
  1.66544098E+01  9.54115851E+01  7.57220777E+01  7.49920368E+01  6.02145835E+01
  1.89266590E+02  9.63175726E+01  8.78666889E+01  8.36149973E+01  1.77914489E+02
  1.02183511E+02  1.06694109E+02  1.34124560E+01  2.86326700E-01  1.06181419E+01
  2.28328715E+00  1.71355763E+01  1.22938581E+01  1.29026271E+01  1.01016461E+01
  3.66437854E+01  1.73073921E+01  1.57231024E+01  1.46824710E+01  3.30984635E+01
  1.76168249E+01  1.81620725E+01  1.73959275E+00  8.47240681E-03  1.27474859E+00
  7.34107347E-02  1.87932887E+01  1.03827676E+02  8.35449674E+01  8.20891825E+01
  6.61407978E+01  2.03823936E+02  1.04805976E+02  9.56653235E+01  9.12729468E+01
  1.92666848E+02  1.11822890E+02  1.16962018E+02  1.52447987E+01  3.84771529E-01
  1.21893856E+01  1.59752321E+00  1.38359132E+01
%FLAG BONDS_INC_HYDROGEN                                                        
%FORMAT(10I8)                                                                   
      96     144      19      90     138      20      90     141      20      66
     135      21      63     132      22      60     129      23      57     126
      22      54     123      23      48     120      23      42     114      24
      42     117      24      18     111      22       3     102      24       3
     105      24       3     108      24
%FLAG BONDS_WITHOUT_HYDROGEN                                                    
%FORMAT(10I8)                                                                   
      96      99       1      93      96       2      87      90       3      84
      87       4      84      93       5      81      84       4      81      99
       6      78      81       7      72      75       8      72      78       7
      69      72       7      69      87       7      66      99       9      60
      63      10      60      66      11      54      57      10      54      60
      11      51      66      12      48      51      12      48      54      11
      42      45      13      42      48      14      36      45      15      30
      36      15      30      39      15      27      33      15      27      39
      15      24      39      16      21      36      16      18      33      17
      15      33      16      12      39      16       9      36      16       6
      33      16       3      75      18
%FLAG ANGLES_INC_HYDROGEN                                                       
%FORMAT(10I8)                                                                   
     138      90     141      33     114      42     117      34     105       3
     108      34     102       3     105      34     102       3     108      34
      99      66     135      35      99      96     144      36      93      96
     144      37      87      90     138      38      87      90     141      38
      75       3     102      39      75       3     105      39      75       3
     108      39      66      60     129      40      63      60     129      41
      60      54     123      40      60      63     132      42      60      66
     135      43      57      54     123      41      54      48     120      40
      54      57     126      42      54      60     129      40      51      48
     120      44      51      66     135      45      48      42     114      46
      48      42     117      46      48      54     123      40      45      42
     114      47      45      42     117      47      42      48     120      48
      33      18     111      49
%FLAG ANGLES_WITHOUT_HYDROGEN                                                   
%FORMAT(10I8)                                                                   
      93      96      99       1      87      84      93       2      84      81
      99       3      84      87      90       4      84      93      96       5
      81      84      87       6      81      84      93       2      81      99
      96       7      78      81      84       8      78      81      99       9
      75      72      78      10      72      69      87      11      72      78
      81      11      69      72      75      10      69      72      78      12
      69      87      84       8      69      87      90      13      66      99
      81      14      66      99      96      15      63      60      66      16
      60      66      99      17      57      54      60      16      54      60
      63      16      54      60      66      18      51      48      54      19
      51      66      60      19      51      66      99      20      48      51
      66      21      48      54      57      16      48      54      60      18
      45      42      48      22      42      48      51      23      42      48
      54      24      36      30      39      25      36      45      42      26
      33      27      39      25      30      36      45      27      27      39
      30      27      24      39      27      28      24      39      30      28
      21      36      30      28      21      36      45      28      18      33
      27      29      15      33      18      30      15      33      27      28
      12      39      24      31      12      39      27      28      12      39
      30      28       9      36      21      31       9      36      30      28
       9      36      45      28       6      33      15      31       6      33
      18      30       6      33      27      28       3      75      72      32
%FLAG DIHEDRALS_INC_HYDROGEN                                                    
%FORMAT(10I8)                                                                   
     129      60      63     132      24     129      60      66     135       6
     123      54      57     126      24     123      54      60     129       6
     120      48      54     123       6     117      42      48     120       6
     114      42      48     120       6      99      66      60     129       6
      96      99      66     135       7      84      87      90     138      25
      84      87      90     141      25      84      93      96     144       4
      81      99      66     135       7      81      99      96     144       5
      72      75       3     102      26      72      75       3     105      26
      72      75       3     108      26      69      87      90     138      25
      69      87      90     141      25      66      51      48     120      18
      66      60      54     123       6      66      60      63     132      27
      66      60     -63     132      28      66      99      96     144       5
      63      60      54     123      27      63      60     -54     123      29
      63      60      66     135       6      60      54      48     120       6
      60      54      57     126      27      60      54     -57     126      28
      57      54      48     120      27      57      54     -48     120      29
      57      54      60     129      27      57      54     -60     129      29
      54      48      42     114       6      54      48      42     117       6
      54      60      63     132      27      54      60     -63     132      28
      54      60      66     135       6      51      48      42     114      27
      51      48     -42     114      29      51      48      42     117      27
      51      48     -42     117      29      51      48      54     123      27
      51      48     -54     123      29      51      66      60     129      27
      51      66     -60     129      29      48      51      66     135      18
      48      54      57     126      27      48      54     -57     126      28
      48      54      60     129       6      45      42      48     120      27
      45      42     -48     120      29      42      48      54     123       6
      36      45      42     114      30      36      45      42     117      30
      27      33      18     111      31      15      33      18     111      32
      15      33     -18     111      33      15      33     -18     111      34
       6      33      18     111      32       6      33     -18     111      33
       6      33     -18     111      34     144      99     -96     -93      23
      87     138     -90    -141      23
%FLAG DIHEDRALS_WITHOUT_HYDROGEN                                                
%FORMAT(10I8)                                                                   
      93      84     -81      99       1      90      87      84      93       1
      87      84      81      99       1      87      84      93      96       2
      84      81     -99      96       3      84      93     -96      99       4
      81      84      87      90       1      81      84     -93      96       2
      81      99     -96      93       5      78      72      69      87       2
      78      81     -84      87       1      78      81      84      93       1
      78      81      99      96       3      75      72      69      87       2
      75      72      78      81       2      72      69      87      84       2
      72      69      87      90       2      72      78     -81      84       2
      72      78      81      99       2      69      72      78      81       2
      69      87     -84      81       1      69      87      84      93       1
      66      99      81      78       3      66      99      81      84       3
      66      99      96      93       5      63      60      66      99       6
      60      66      99      81       7      60      66      99      96       7
      57      54      60      63       8      57      54     -60      63       9
      57      54      60      66       6      54      48     -51      66      10
      54      48     -51      66      11      54      60      66      99       6
      51      48      54      57       8      51      48     -54      57       9
      51      48     -54      60       6      51      66     -60      54       6
      51      66      60      63       8      51      66     -60      63       9
      51      66      99      81       7      51      66      99      96       7
      48      51     -66      60      10      48      51     -66      60      11
      48      51      66      99      12      48      51     -66      99      11
      48      54      60      63       6      48      54     -60      66      13
      48      54     -60      66      14      48      54     -60      66      15
      45      42      48      51       8      45      42     -48      51       9
      45      42      48      54       6      42      48      51      66      10
      42      48     -51      66      11      42      48      54      57       6
      42      48      54      60      13      42      48     -54      60      14
      42      48     -54      60      15      39      30      36      45      16
      36      45      42      48      17      36      45     -42      48      18
      30      36      45      42      19      30      39      27      33      16
      27      39      30      36      16      24      39      27      33      16
      24      39      30      36      16      21      36      30      39      16
      21      36      45      42      20      21      36     -45      42      21
      18      33      27      39      16      15      33      27      39      16
      12      39      27      33      16      12      39      30      36      16
       9      36      30      39      16       9      36      45      42      20
       9      36     -45      42      21       6      33      27      39      16
       3      75      72      69      22       3      75      72      78      22
      66      81     -99     -96      23      84      69     -87     -90      23
      81      87     -84     -93      23      84      99     -81     -78      23
      69      78     -72     -75      23
%FLAG EXCLUDED_ATOMS_LIST                                                       
%FORMAT(10I8)                                                                   
       0      24      25      26      27      35      36      37       6       7
      10      12      14      38       8      11      13      14      15      16
       9      10      11      12      13      14       7      10      12      14
      38      10      12      14      38      11      13      14      15      16
      10      11      12      13      14      11      12      13      14      38
      12      13      14      15      16      14      38      14      15      16
      17      39      40      16      16      17      18      19      20      21
      23      39      40      41      42      17      18      19      39      40
      41      18      19      20      21      22      23      34      39      40
      41      42      43      44      46      19      20      21      22      23
      28      33      34      39      40      41      42      44      46      20
      21      22      23      34      39      40      41      42      43      44
      45      46      21      22      23      41      42      43      44      22
      23      28      33      34      41      42      43      44      45      46
      23      34      42      44      45      46      27      28      29      32
      33      34      41      42      44      45      46      49      25      26
      27      28      29      30      31      32      47      48      26      27
      28      29      30      31      34      35      36      37      27      28
      30      35      36      37      28      29      30      32      33      34
      29      30      31      32      33      34      46      49      30      31
      32      33      34      47      48      49      31      32      33      34
      47      48      32      47      48      33      34      49      34      46
      49      44      46      49      36      37      37       0       0      40
      41      41      42      43      44       0      45      46       0       0
      48       0       0
%FLAG HBOND_ACOEF                                                               
%FORMAT(5E16.8)                                                                 

%FLAG HBOND_BCOEF                                                               
%FORMAT(5E16.8)                                                                 

%FLAG HBCUT                                                                     
%FORMAT(5E16.8)                                                                 

%FLAG AMBER_ATOM_TYPE                                                           
%FORMAT(20a4)                                                                   
Mg2+c3  o   o   o   o   oh  o   o   os  os  p5  p5  p5  c3  os  c5  os  c5  oh  
c5  oh  c5  nb  ca  ss  nb  ca  ca  ca  nv  nc  cd  na  h1  h1  h1  ho  h1  h1  
h1  h1  ho  h1  ho  h2  hn  hn  h5  
%FLAG TREE_CHAIN_CLASSIFICATION                                                 
%FORMAT(20a4)                                                                   
M   BLA BLA BLA BLA BLA BLA BLA BLA BLA BLA BLA BLA BLA BLA BLA BLA BLA BLA BLA 
BLA BLA BLA BLA BLA BLA BLA BLA BLA BLA BLA BLA BLA BLA BLA BLA BLA BLA BLA BLA 
BLA BLA BLA BLA BLA BLA BLA BLA BLA 
%FLAG JOIN_ARRAY                                                                
%FORMAT(10I8)                                                                   
       0       0       0       0       0       0       0       0       0       0
       0       0       0       0       0       0       0       0       0       0
       0       0       0       0       0       0       0       0       0       0
       0       0       0       0       0       0       0       0       0       0
       0       0       0       0       0       0       0       0       0
%FLAG IROTAT                                                                    
%FORMAT(10I8)                                                                   
       0       0       0       0       0       0       0       0       0       0
       0       0       0       0       0       0       0       0       0       0
       0       0       0       0       0       0       0       0       0       0
       0       0       0       0       0       0       0       0       0       0
       0       0       0       0       0       0       0       0       0
%FLAG RADIUS_SET                                                                
%FORMAT(1a80)                                                                   
H(N)-modified Bondi radii (mbondi2)                                             
%FLAG RADII                                                                     
%FORMAT(5E16.8)                                                                 
  1.50000000E+00  1.70000000E+00  1.50000000E+00  1.50000000E+00  1.50000000E+00
  1.50000000E+00  1.50000000E+00  1.50000000E+00  1.50000000E+00  1.50000000E+00
  1.50000000E+00  1.85000000E+00  1.85000000E+00  1.85000000E+00  1.70000000E+00
  1.50000000E+00  1.70000000E+00  1.50000000E+00  1.70000000E+00  1.50000000E+00
  1.70000000E+00  1.50000000E+00  1.70000000E+00  1.55000000E+00  1.70000000E+00
  1.80000000E+00  1.55000000E+00  1.70000000E+00  1.70000000E+00  1.70000000E+00
  1.55000000E+00  1.55000000E+00  1.70000000E+00  1.55000000E+00  1.20000000E+00
  1.20000000E+00  1.20000000E+00  1.20000000E+00  1.20000000E+00  1.20000000E+00
  1.20000000E+00  1.20000000E+00  1.20000000E+00  1.20000000E+00  1.20000000E+00
  1.20000000E+00  1.30000000E+00  1.30000000E+00  1.20000000E+00
%FLAG SCREEN                                                                    
%FORMAT(5E16.8)                                                                 
  8.00000000E-01  7.20000000E-01  8.50000000E-01  8.50000000E-01  8.50000000E-01
  8.50000000E-01  8.50000000E-01  8.50000000E-01  8.50000000E-01  8.50000000E-01
  8.50000000E-01  8.60000000E-01  8.60000000E-01  8.60000000E-01  7.20000000E-01
  8.50000000E-01  7.20000000E-01  8.50000000E-01  7.20000000E-01  8.50000000E-01
  7.20000000E-01  8.50000000E-01  7.20000000E-01  7.90000000E-01  7.20000000E-01
  9.60000000E-01  7.90000000E-01  7.20000000E-01  7.20000000E-01  7.20000000E-01
  7.90000000E-01  7.90000000E-01  7.20000000E-01  7.90000000E-01  8.50000000E-01
  8.50000000E-01  8.50000000E-01  8.50000000E-01  8.50000000E-01  8.50000000E-01
  8.50000000E-01  8.50000000E-01  8.50000000E-01  8.50000000E-01  8.50000000E-01
  8.50000000E-01  8.50000000E-01  8.50000000E-01  8.50000000E-01
