
 2828  0.0000000e+00
  17.7967057  24.4006177  19.1913678  14.1599367  11.2802946  19.0312009
  22.9179691  25.4407199  19.0782795  18.9249196  20.8803734  20.4951002
  23.0992234  22.6885950  20.1733687  21.7844622  23.9957233  17.2919344
  20.6538814  26.0489841  18.1511812  18.7805863  21.4534793  18.0070611
  21.0377545  22.3744472  21.6145509  20.9446229  23.9934079  19.6321375
  21.0955294  21.4513437  19.1580497  21.6905904  24.8527377  18.4905659
  19.6197990  20.7746800  19.1957336  21.6216488  22.6261792  20.1455542
  20.9375187  18.7545356  18.0454656  19.7903892  19.2299594  18.7599662
  20.5645981  17.5360208  17.1866595  19.5338217  16.7072165  17.7866833
  20.0845157  17.9667089  15.8119033  20.6826329  17.1183021  14.8096629
  18.5837751  17.7649356  15.8817199  18.0400603  17.3888532  14.6114734
  18.3966379  16.6433303  16.8951848  14.3840760  14.2429989  19.0631207
  15.3630129  13.6984113  18.3082147  15.4035276  11.9505546  17.9417298
  16.3397788  14.4922406  17.8251594  16.3345167  15.8200442  18.0831246
  15.3597068  16.3538018  18.8313461  14.3904065  15.5658254  19.3143153
  13.4444366  16.1473980  20.0528418  15.5880976  17.6614947  18.9344860
  16.7032661  17.9350770  18.2692749  17.1565235  16.8068886  17.7198974
  14.1531376  10.1934515  18.9506097  13.1819948  11.6722049  18.7503647
  14.3843557  11.5663058  20.0583088  21.0282196  26.6143078  17.4713261
  21.7116107  18.4687296  18.7576914  21.3158330  19.5481761  17.4004331
  21.4585244  16.9250689  17.0579603  20.3265788  19.0128575  15.6279481
  20.3807418  17.3885735  13.9391589  18.1013677  18.6749529  16.2387809
  18.1651686  18.1052528  13.9846229  18.3787849  15.6800996  16.3844463
  13.4780825  17.1418835  20.2248404  12.6944008  15.5934669  20.4405487
  17.1661734  18.9074043  18.1861330  25.9367277  23.7362011  19.1628269
  13.7155016  20.4422176  37.4296190  14.4885892  19.8951163  37.2909066
  14.0680415  21.3066426  37.6410652  16.0521294  16.6014842  35.0614640
  16.3046814  16.0796364  34.2998103  15.1145853  16.4380988  35.1641324
  23.4328897  15.9222126  37.7774054  24.3446753  16.1549512  37.6021751
  22.9238544  16.5059170  37.2149132  21.0831838  17.0925620  36.3560719
  20.5678462  17.8630225  36.5949107  20.8109147  16.4190756  36.9793781
  17.4617174  18.9423146  32.8348427  16.5544235  18.7112399  33.0339576
  17.9588206  18.1460765  33.0222409  18.6405407  19.0435741  37.3572418
  17.7316626  18.7594774  37.4544887  18.6700491  19.4634819  36.4975724
  18.3381495  20.5844484  34.6960496  17.9000925  19.8680343  34.2366133
  19.0791936  20.8120599  34.1345588  22.4592722  19.4428866  34.2892554
  21.8421893  18.7175694  34.1925606  21.9909211  20.2038226  33.9459628
  14.2491268  13.6614290  33.4113858  13.3720735  13.5403091  33.0476105
  14.7249021  12.8700369  33.1592747  18.8103660  16.6728701  33.2776083
  19.7562765  16.5434909  33.3464501  18.4317905  15.9343363  33.7545511
  16.9946577  14.5978677  33.2130968  16.0878033  14.3011790  33.2893682
  17.2722558  14.3008496  32.3465254  15.7645362  11.4565613  33.3542947
  16.6264526  11.7820511  33.6138765  15.9495706  10.6697109  32.8416013
  21.8446090  22.2538904  33.6482539  22.5481940  22.4588907  34.2640194
  21.1208739  22.8215666  33.9131622  19.7899390   0.3595162  23.7554363
  19.1387370   0.9449242  23.3688376  20.5843753   0.8901357  23.8149400
  15.4950724   5.2266417  27.3229158  15.4174754   6.1774242  27.4017638
  14.8912368   4.8812289  27.9804084  17.7689093   0.5848570  26.0434697
  17.6334768   1.4300106  26.4719545  18.3098906   0.7867848  25.2800631
  20.3685254   4.6582776  22.4790420  19.6946953   4.9614472  23.0875378
  20.7551076   5.4611856  22.1295877  22.3157615   1.4980950  28.7858710
  22.6080589   2.0586007  28.0671076  22.8256236   1.7909511  29.5411869
  18.5676469   4.8262448  24.6937499  18.7428225   4.3550491  25.5083122
  17.8809257   5.4528214  24.9218760  17.4355196   3.0202703  27.3821685
  16.6522718   3.5624384  27.4759910  18.1347941   3.5376683  27.7815926
  19.9184473   4.0216511  28.7763314  20.1006867   3.2038167  29.2391066
  20.7417459   4.2384204  28.3388204  20.2526638   2.9484697  26.0378362
  20.7814405   2.4377151  25.4248524  20.5154858   2.6327227  26.9023895
  23.3466822   2.9201495  26.6533345  23.5203700   2.3547917  25.9007198
  23.8395713   3.7202390  26.4712835  17.9174078   5.7539948  29.6412827
  17.4779069   5.2616327  30.3345684  18.6682195   5.2112916  29.4004903
  14.9261457  -0.1518120  25.1893590  15.0749578   0.5317345  24.5360262
  15.7327901  -0.1713029  25.7043045  18.4256863   2.3430011  22.6605337
  17.8530830   2.9620198  22.2075809  18.9989657   2.8929373  23.1945259
  21.6454123   2.6267161  23.7913919  22.5784796   2.5612723  23.9946795
  21.5577336   3.4623428  23.3328452  24.2742139   1.9433031  20.7517867
  24.1955771   1.6092895  21.6453625  25.0951806   2.4354799  20.7509339
  25.0493586  12.0216112  28.4439898  24.4858451  11.9306049  27.6756185
  24.9345981  11.2016016  28.9242390  22.5958018  13.5167303  31.2824118
  23.3879309  13.1758128  30.8670417  22.8354668  13.6262278  32.2026271
  30.6293144  15.6887079  23.7554363  29.9781124  16.2741160  23.3688376
  31.4237507  16.2193274  23.8149400  24.5548772  12.7776216  24.1541497
  25.3279648  12.2305204  24.0154373  24.9074170  13.6420466  24.3655958
  27.3190021  11.4829447  33.9509756  27.9153593  11.2585470  33.2366719
  27.3764992  10.7414193  34.5535204  26.8915049   8.9368883  21.7859947
  27.1440570   8.4150404  21.0243410  25.9539608   8.7735028  21.8886630
  32.1068410  13.3777511  24.2923347  31.4714242  13.4512138  25.0044252
  31.7765816  13.9671110  23.6142426  26.6111338  10.8396989  23.9884322
  26.4947596  10.1641892  24.6565406  26.7213598  10.3529362  23.1716475
  28.9542879  10.3007136  27.6931011  28.5901086   9.7737757  28.4043932
  29.8109995   9.9105605  27.5197496  28.5948366   5.3297035  22.6892360
  28.7622768   6.1977272  23.0562831  28.4045535   5.4924317  21.7653649
  24.8036181  10.2427811  30.3894894  23.8786677  10.1104025  30.5972586
  25.0520594  11.0222030  30.8864837  28.5737587   7.7854693  23.6739026
  28.4537212   8.2311744  24.5124507  27.8790175   8.1340011  23.1152565
  22.1644992   9.8861085  31.2238683  22.2937373  10.1395564  32.1378095
  21.4842443  10.4788793  30.9043338  26.3344479  20.5558335  27.3229158
  26.2568509  21.5066160  27.4017638  25.7306123  20.2104207  27.9804084
  34.2722653   8.2576166  24.5019360  35.1840509   8.4903553  24.3267058
  33.7632300   8.8413210  23.9394439  28.4320197  12.9776393  29.1583027
  28.8958543  13.2564096  28.3687649  28.1676995  12.0759837  28.9756118
  25.3244278  12.5247874  32.0962790  25.8945635  12.9535142  31.4580275
  25.9152390  12.2430459  32.7946976  27.3689083   9.0999545  25.9672592
  28.0713127   9.5520589  26.4346518  27.0369712   8.4583364  26.5952485
  21.1114417   7.3583098  31.2689726  20.3213471   7.6140626  30.7929836
  21.6025665   8.1731435  31.3741766  23.0629163   7.7227677  28.2273202
  22.2660326   7.8346371  28.7456698  22.8354755   8.0614329  27.3614093
  28.6082848  15.9140488  26.0434697  28.4728523  16.7592023  26.4719545
  29.1492660  16.1159765  25.2800631  22.0612245  13.4315926  26.6162622
  22.5736766  14.2259176  26.7668187  22.7134958  12.7342216  26.5496224
  23.8707130  16.5481682  28.6985376  24.0473758  17.4699647  28.5106359
  24.6663963  16.2340101  29.1279755  24.9938445  18.0659856  34.6995718
  25.5445871  17.9376919  33.9272712  24.1549921  18.3654745  34.3490611
  20.0261162  11.7604580  27.3922193  20.8636384  12.1701588  27.1755901
  20.2039430  10.8204022  27.3622387  31.9225594   9.4279661  23.0806026
  31.4072218  10.1984265  23.3194413  31.6502903   8.7544797  23.7039087
  29.5072705   4.2729361  28.1391264  28.6514302   3.8836212  27.9596903
  29.9199657   4.3521322  27.2791050  31.7111897   7.3006753  24.9065807
  31.4062033   7.6152902  25.7575950  32.6642339   7.3788173  24.9493140
  30.1558329  13.4596976  26.5558761  29.6279691  12.7249736  26.2431999
  29.6545832  14.2371652  26.3098729  24.8877057   4.1216642  28.9165373
  25.4620809   3.8991824  28.1838566  25.4748039   4.1905337  29.6693974
  25.2146644   6.1521103  22.9361258  24.3783956   6.4895790  23.2570533
  25.0751414   6.0170083  21.9988395  28.3010929  11.2777186  19.5593734
  27.3937991  11.0466440  19.7584883  28.7981961  10.4814805  19.7467716
  31.2079008  19.9874693  22.4790420  30.5340707  20.2906390  23.0875378
  31.5944830  20.7903774  22.1295877  31.2072513   8.8831240  27.0990770
  31.9544332   9.3952638  26.7897892  31.4764102   8.5615293  27.9595163
  29.4799163  11.3789781  24.0817724  28.5710382  11.0948814  24.1790194
  29.5094247  11.7988860  23.2221031  34.7118430  14.9896371  27.8508892
  34.2580757  14.1487280  27.9074082  34.0812397  15.6257769  28.1883672
  33.1551369  16.8272867  28.7858710  33.4474344  17.3877924  28.0671076
  33.6649990  17.1201428  29.5411869  20.0487333   9.0995295  28.0632926
  19.8511733   8.5064656  27.3383993  19.4933997   8.7947505  28.7808865
  28.0284057   8.9918402  30.1827520  28.0832667   8.0392238  30.1069996
  27.2175259   9.1477841  30.6668818  29.1775251  12.9198525  21.4205803
  28.7394681  12.2034384  20.9611440  29.9185691  13.1474640  20.8590894
  25.9676417   7.6095461  27.9417898  25.1544282   7.9089632  28.3483091
  26.4635411   7.2151150  28.6592381  28.1184995  17.6053218  29.8752163
  28.0761173  17.8314065  28.9460695  29.0347694  17.3716593  30.0237964
  26.2350795  14.4816247  29.6714126  27.0291394  13.9866568  29.4696701
  25.5242488  13.9534110  29.3081831  22.5433559   8.6259329  25.7473879
  21.6131147   8.5643785  25.9643841  22.6391031   8.1035282  24.9510520
  22.4619108   5.1514142  28.3352120  22.7225925   6.0659475  28.2261281
  23.2836280   4.6838585  28.4848733  28.8122071  15.0545269  33.3511963
  28.6733157  14.6864054  34.2237901  28.0236668  15.5692909  33.1795921
  29.4070223  20.1554366  24.6937499  29.5821979  19.6842409  25.5083122
  28.7203011  20.7820132  24.9218760  30.3627287  14.4326872  30.7400801
  30.0277119  14.3927642  31.6358451  29.8631232  13.7671588  30.2671211
  33.2986478  11.7782906  21.0137860  32.6815649  11.0529735  20.9170913
  32.8302967  12.5392267  20.6704935  23.9731309  23.3043729  31.4677360
  24.2127907  23.9362253  32.1456378  23.1300505  22.9531769  31.7542719
  25.0885024   5.9968331  20.1359165  24.2114490   5.8757131  19.7721411
  25.5642777   5.2054409  19.8838053  16.6087164  10.7845490  30.2300672
  17.2958204  10.4707220  29.6421687  16.4535293  11.6886855  29.9567923
  28.2748950  18.3494621  27.3821685  27.4916472  18.8916301  27.4759910
  28.9741695  18.8668601  27.7815926  32.6675381  12.9160938  27.5994314
  31.7331660  13.0362400  27.4299018  32.8452049  12.0133405  27.3354324
  28.1680569   6.3006634  29.7527575  27.7978357   5.7477674  30.4408481
  28.6639661   5.6964767  29.2002575  34.1224163  15.1022078  25.1330500
  34.3984007  14.9878673  26.0424374  33.2528662  14.7039563  25.0942673
  30.7578227  19.3508429  28.7763314  30.9400622  18.5330085  29.2391066
  31.5811213  19.5676121  28.3388204  31.0920393  18.2776614  26.0378362
  31.6208159  17.7669069  25.4248524  31.3548613  17.9619144  26.9023895
  21.5937486  16.2940484  33.7813696  22.1790922  15.5484171  33.9141600
  21.3962324  16.6044440  34.6650360  24.4476141  19.3291731  28.7976138
  23.7786516  19.8137859  28.3140178  24.3089011  19.5760951  29.7119517
  19.8163718   7.5910186  25.5772070  20.1117159   6.6820864  25.5239124
  18.9151754   7.5697925  25.2553073  31.7249797  19.3117450  32.3822479
  31.6000936  18.5107190  31.8733424  32.3828888  19.8063643  31.8936449
  23.3457965   5.6666183  31.5599619  22.6244551   6.2802150  31.4207092
  24.1351221   6.2023947  31.4816265  21.5451560   5.2724284  25.7011395
  21.2164266   4.3921663  25.5186501  21.8990930   5.2171952  26.5887785
  30.7931138  16.9079186  30.2106381  30.6456101  15.9795894  30.3913951
  31.6184632  16.9299277  29.7263456  24.6593383   5.5597253  26.0686873
  24.9989455   6.0883175  25.3465481  25.1065503   5.8977660  26.8445440
  34.3965260  17.7307745  31.2971254  35.3211808  17.5250606  31.1595705
  34.2280564  17.4824146  32.2060595  26.6461530   4.0571875  24.2680166
  27.3669892   4.4353128  23.7643883  26.0226834   4.7760752  24.3715144
  30.7892653   4.7617024  25.2038498  31.0056267   5.6441662  24.9027326
  30.3086720   4.3703237  24.4744140  25.5291874   7.7202737  31.7809243
  25.3836455   8.0343040  32.6733524  25.0517078   8.3387638  31.2280141
  34.1860576  18.2493412  26.6533345  34.3597454  17.6839835  25.9007198
  34.6789468  19.0494307  26.4712835  20.0037536  10.2608082  34.7196904
  19.4591004  11.0367890  34.8517178  20.8816886  10.6078886  34.5616025
  26.7925153   3.5919665  27.0977703  26.9141064   2.6636312  27.2968590
  26.5027195   3.6058351  26.1856018  35.1735749  17.5660177  23.7530243
  35.8686654  18.1866870  23.9717558  35.5158899  16.7155528  24.0282621
  28.7567833  21.0831866  29.6412827  28.3172823  20.5908244  30.3345684
  29.5075950  20.5404833  29.4004903  21.2360172  17.2743407  29.6437455
  22.0618192  16.9747178  29.2636099  20.8854224  16.5051029  30.0927244
  26.2041705  16.6269875  31.7135129  25.5821714  15.9640580  31.4137357
  26.8746572  16.6531007  31.0308777  19.4368777  15.1929733  30.6026389
  18.6000685  14.7651907  30.4210390  19.4092422  15.3862176  31.5397180
  25.7655212  15.1773798  25.1893590  25.9143332  15.8609263  24.5360262
  26.5721655  15.1578888  25.7043045  23.5207845  11.2038976  26.1954659
  23.2753887  10.3001306  26.3934869  23.6903759  11.2056126  25.2534137
  22.7903492   6.9367333  23.6940820  22.0972737   7.0111688  23.0380856
  22.5455244   6.1727677  24.2162337  29.2650617  17.6721929  22.6605337
  28.6924585  18.2912116  22.2075809  29.8383411  18.2221290  23.1945259
  32.4847877  17.9559079  23.7913919  33.4178550  17.8904640  23.9946795
  32.3971090  18.7915346  23.3328452  35.1135894  17.2724949  20.7517867
  35.0349525  16.9384813  21.6453625  35.9345561  17.7646717  20.7509339
  29.6497416   9.0082741  20.0021390  30.5956521   8.8788949  20.0709808
  29.2711661   8.2697403  20.4790818  27.8340333   6.9332718  19.9376275
  26.9271788   6.6365830  20.0138988  28.1116314   6.6362536  19.0710561
  18.7518273   8.2539081  30.3875321  18.4321058   7.4004389  30.0949695
  18.2051702   8.4687659  31.1433289  22.5298181  10.9701522  34.1044828
  22.7484191  11.9018630  34.1232861  22.9423955  10.6109497  34.8899632
  26.6039118   3.7919653  20.0788254  27.4658282   4.1174551  20.3384071
  26.7889462   3.0051149  19.5661320  18.6206533  11.8741993  32.3568443
  17.9270005  11.4595945  31.8438397  19.3679524  11.9162529  31.7601862
  20.5343276  11.8060246  30.2334458  20.5113964  11.9047934  29.2816341
  20.8443912  12.6525397  30.5551624  23.1930654  13.8636401  34.3481072
  24.1473907  13.8320344  34.2811004  22.9943177  13.4027025  35.1631298
  23.7830036  12.4337517  36.9151870  24.6022925  12.9281596  36.9386707
  24.0566844  11.5169486  36.8869437  21.5480883  19.4056021  31.3651270
  21.4135351  18.6456422  30.7989268  21.1312945  20.1296921  30.8980059
  32.6839846  14.5892944  20.3727845  33.3875696  14.7942947  20.9885501
  31.9602494  15.1569706  20.6376929  33.5137656  10.3402806  26.4930115
  33.4572857  10.7971357  25.6537748  34.0665998   9.5793490  26.3152958
  24.7050009  20.3025338  31.5769713  24.5882393  21.2470770  31.4748403
  23.8842455  19.9998899  31.9655512  34.5926543  15.0275474  22.4226305
  35.4272147  14.5956672  22.2403780  34.4310886  14.8557487  23.3503200
  34.2472435  11.5307587  23.7882645  34.1921239  11.3651858  22.8471089
  33.6218491  12.2383620  23.9444834  27.4858125  19.7084586  31.4535720
  26.5353756  19.7086448  31.3400092  27.7890611  18.9617321  30.9371754
  33.9022917  23.0519595  28.2273202  33.1054080  23.1638289  28.7456698
  33.6748509  23.3906247  27.3614093  30.8654917  27.0896498  27.3922193
  31.7030139  27.4993506  27.1755901  31.0433184  26.1495940  27.3622387
  30.8881088  24.4287213  28.0632926  30.6905487  23.8356574  27.3383993
  30.3327752  24.1239423  28.7808865  33.3827313  23.9551247  25.7473879
  32.4524901  23.8935702  25.9643841  33.4784785  23.4327200  24.9510520
  33.3012862  20.4806060  28.3352120  33.5619680  21.3951393  28.2261281
  34.1230035  20.0130502  28.4848733  27.4480919  26.1137408  30.2300672
  28.1351959  25.7999138  29.6421687  27.2929047  27.0178773  29.9567923
  30.6557472  22.9202104  25.5772070  30.9510914  22.0112782  25.5239124
  29.7545508  22.8989843  25.2553073  32.3845314  20.6016201  25.7011395
  32.0558020  19.7213580  25.5186501  32.7384685  20.5463870  26.5887785
  34.3601599  26.5330893  26.1954659  34.1147641  25.6293223  26.3934869
  34.5297514  26.5348044  25.2534137  33.6297247  22.2659251  23.6940820
  32.9366492  22.3403606  23.0380856  33.3848999  21.5019595  24.2162337
  29.5912028  23.5830999  30.3875321  29.2714812  22.7296307  30.0949695
  29.0445456  23.7979577  31.1433289  33.4351773   5.8521343  18.0069425
  34.2273065   5.5112168  17.5915724  33.6748423   5.9616319  18.9271578
  32.9006001   5.7669966  13.3407929  33.4130522   6.5613216  13.4913494
  33.5528714   5.0696256  13.2741531  34.7100886   8.8835722  15.4230682
  34.8867514   9.8053687  15.2351666  35.5057719   8.5694141  15.8525062
  34.8125064  15.6397769  18.1922666  35.0521663  16.2716293  18.8701685
  33.9694261  15.2885809  18.4788026  32.4331241   8.6294524  20.5059002
  33.0184678   7.8838212  20.6386907  32.2356080   8.9398481  21.3895666
  35.2869897  11.6645771  15.5221445  34.6180272  12.1491899  15.0385485
  35.1482766  11.9114992  16.4364823  32.0753928   9.6097447  16.3682762
  32.9011947   9.3101219  15.9881406  31.7247980   8.8405069  16.8172551
  30.2762533   7.5283773  17.3271696  29.4394441   7.1005948  17.1455697
  30.2486178   7.7216217  18.2642487  29.4600289   4.2096033  19.0813749
  28.7663761   3.7949986  18.5683704  30.2073280   4.2516569  18.4847168
  31.3737032   4.1414287  16.9579764  31.3507720   4.2401974  16.0061647
  31.6837668   4.9879437  17.2796930  34.0324410   6.1990442  21.0726379
  34.9867663   6.1674384  21.0056310  33.8336933   5.7381065  21.8876605
  32.3874638  11.7410061  18.0896577  32.2529106  10.9810462  17.5234575
  31.9706701  12.4650961  17.6225365  35.5443764  12.6379378  18.3015019
  35.4276148  13.5824811  18.1993709  34.7236211  12.3352940  18.6900818
   1.7541390   8.2576166  24.5019357   2.6659246   8.4903553  24.3267055
   1.2451037   8.8413210  23.9394436   4.2400204  14.1756422  29.2477303
   3.5551242  14.5555324  28.6974336   4.3244053  14.7851749  29.9809250
  10.7002956  11.0427085  30.3679975   9.9466665  10.4734483  30.2123979
  10.8350498  11.0089750  31.3150610   4.3778605  12.1812015  25.0159196
   3.6008048  11.8423175  24.5714358   5.0570086  12.1864638  24.3414161
   2.1937167  14.9896371  27.8508889   1.7399494  14.1487280  27.9074079
   1.5631133  15.6257769  28.1883669   4.7767102  11.1955722  27.4782118
   4.6385001  11.3857318  26.5503307   4.4203321  11.9575105  27.9350169
   1.6679313  18.2493412  26.6533342   1.8416191  17.6839835  25.9007195
   2.1608204  19.0494307  26.4712832   7.5218704  11.0129835  28.2723642
   7.9649850  10.2637161  27.8742765   6.6445214  11.0039972  27.8897374
   2.6554485  17.5660177  23.7530240   3.3505390  18.1866870  23.9717555
   2.9977636  16.7155528  24.0282618   4.5545909  15.0159882  25.2817571
   5.0797233  15.3547155  24.5566891   4.4668261  14.0806898  25.0980706
   7.0651569  12.4835074  30.6646089   7.8998460  12.9224878  30.8283650
   7.2010698  12.0073727  29.8454335   2.5954630  17.2724949  20.7517864
   2.5168262  16.9384813  21.6453622   3.4164297  17.7646717  20.7509336
   2.0745280  15.0275474  22.4226302   2.9090884  14.5956672  22.2403777
   1.9129623  14.8557487  23.3503197  10.7029555  25.5445125  32.5181479
  11.3407965  25.4251872  31.8144819  10.5850398  26.4925969  32.5769431
   7.5119261  25.4972553  32.4543004   7.1737772  25.3813618  31.5663539
   8.3809029  25.0963718  32.4344010   8.9505635  31.0178997  23.7554359
   8.2993615  31.6033077  23.3688373   9.7449998  31.5485192  23.8149397
   2.8761263  28.1068134  24.1541494   3.6492139  27.5597121  24.0154370
   3.2286661  28.9712383  24.3655955   5.2127540  24.2660800  21.7859944
   5.4653061  23.7442322  21.0243407   4.2752099  24.1026946  21.8886627
  10.2570823  23.2696579  29.5934687  11.0433912  22.8516002  29.2425104
  10.5209527  24.1742671  29.7616335  10.4280901  28.7069429  24.2923344
   9.7926734  28.7804055  25.0044248  10.0978307  29.2963028  23.6142423
  15.6579250  23.2071812  30.4967666  16.3904422  22.6371029  30.7305495
  14.9018606  22.8193412  30.9374171   4.9323829  26.1688906  23.9884319
   4.8160087  25.4933810  24.6565403   5.0426089  25.6821280  23.1716472
   7.2755370  25.6299053  27.6931008   6.9113577  25.1029674  28.4043929
   8.1322486  25.2397522  27.5197493  13.1804671  16.9193386  34.9562274
  12.8487995  17.7888797  34.7323489  12.5850284  16.6029670  35.6356304
   6.9160857  20.6588953  22.6892356   7.0835259  21.5269189  23.0562828
   6.7258026  20.8216235  21.7653646  13.0733334  21.6388472  32.0355624
  12.1650211  21.5703881  31.7414385  13.0220930  22.1160417  32.8637450
   6.8950078  23.1146611  23.6739023   6.7749703  23.5603661  24.5124504
   6.2002666  23.4631928  23.1152561  14.9394980  19.8404910  33.8133498
  14.2969361  20.1337444  33.1673293  14.4349909  19.7257831  34.6186695
  12.5935144  23.5868084  24.5019357  13.5053000  23.8195470  24.3267055
  12.0844791  24.1705128  23.9394436  11.2004726  28.5693902  31.8932939
  10.5713589  28.7339616  31.1909007  10.8130388  28.9835512  32.6643903
  15.0793958  29.5048340  29.2477303  14.3944996  29.8847241  28.6974336
  15.1637808  30.1143667  29.9809250  12.3344890  27.1508299  35.8472646
  12.5461785  27.7940059  35.1707027  12.2874638  26.3170616  35.3794576
   9.9371119  19.7626120  32.7509218   9.0755598  20.0607373  33.0425956
   9.9633553  19.9796519  31.8190251   6.7532688  28.3068310  29.1583024
   7.2171034  28.5856013  28.3687646   6.4889486  27.4051755  28.9756115
   5.6901574  24.4291463  25.9672589   6.3925618  24.8812506  26.4346515
   5.3582203  23.7875281  26.5952482  21.5396711  26.3719003  30.3679975
  20.7860419  25.8026401  30.2123979  21.6744252  26.3381667  31.3150610
   6.9295339  31.2432405  26.0434694   6.7941014  32.0883941  26.4719542
   7.4705151  31.4451683  25.2800628  10.2438085  24.7571578  23.0806023
   9.7284709  25.5276183  23.3194410   9.9715394  24.0836714  23.7039084
   7.8285196  19.6021279  28.1391261   6.9726793  19.2128129  27.9596900
   8.2412148  19.6813240  27.2791047   9.3584343  17.1367622  32.5382821
   8.8549138  17.0997757  31.7250626   9.6514950  18.0460365  32.5979478
   5.6027229  17.2206352  31.5449003   6.4680226  17.0249161  31.1854892
   5.6704738  16.9916704  32.4718359  15.2172359  27.5103933  25.0159196
  14.4401802  27.1715092  24.5714358  15.8963840  27.5156556  24.3414161
  10.0324388  22.6298670  24.9065804   9.7274524  22.9444819  25.7575947
  10.9854830  22.7080090  24.9493137   8.4770820  28.7888894  26.5558758
   7.9492182  28.0541653  26.2431995   7.9758323  29.5663570  26.3098726
  13.4563666  26.9837914  31.6725804  12.7987341  27.6737176  31.7605933
  14.2604065  27.3734346  32.0159791   3.2089548  19.4508560  28.9165370
   3.7833300  19.2283741  28.1838562   3.7960530  19.5197254  29.6693971
  12.2669125  25.3382287  29.7229746  12.7801007  25.9712279  30.2251456
  12.9170349  24.7383482  29.3573106   3.5359135  21.4813021  22.9361255
   2.6996447  21.8187707  23.2570530   3.3963905  21.3462001  21.9988392
   5.5112216  16.3249809  27.6440439   4.8576628  16.0098826  27.0197054
   5.4692690  15.7025549  28.3700262   6.6223420  26.6069104  19.5593731
   5.7150482  26.3758357  19.7584880   7.1194452  25.8106723  19.7467713
   8.7449956  22.8131742  31.9688087   7.8272517  23.0346689  31.8109775
   9.1610100  22.8878053  31.1099794   9.5285004  24.2123158  27.0990767
  10.2756823  24.7244555  26.7897889   9.7976593  23.8907211  27.9595160
   7.8011654  26.7081699  24.0817721   6.8922873  26.4240732  24.1790191
   7.8306738  27.1280777  23.2221028  13.0330921  30.3188288  27.8508889
  12.5793248  29.4779198  27.9074079  12.4024888  30.9549687  28.1883669
  11.9763841  21.2480274  29.0809556  11.2386598  20.7357660  29.4119799
  12.2290614  20.8080656  28.2692833  11.4763860  32.1564785  28.7858707
  11.7686835  32.7169842  28.0671072  11.9862481  32.4493346  29.5411866
  12.0775468  14.0256526  29.6751325  12.3834345  13.1653890  29.3877240
  12.8028073  14.6174146  29.4750319   6.3496548  24.3210319  30.1827516
   6.4045158  23.3684156  30.1069993   5.5387750  24.4769758  30.6668815
   7.4987742  28.2490442  21.4205800   7.0607172  27.5326301  20.9611437
   8.2398182  28.4766557  20.8590891   4.2888908  22.9387379  27.9417895
   3.4756773  23.2381550  28.3483087   4.7847902  22.5443068  28.6592378
  15.6160856  26.5247639  27.4782118  15.4778755  26.7149235  26.5503307
  15.2597075  27.2867022  27.9350169  15.6430236  28.5924166  32.4893390
  16.0766743  28.4999456  33.3376444  16.3561817  28.5681667  31.8513406
  11.6198969  27.1074824  21.0137857  11.0028140  26.3821652  20.9170910
  11.1515458  27.8684184  20.6704932   3.4097515  21.3260248  20.1359162
   2.5326981  21.2049049  19.7721408   3.8855268  20.5346327  19.8838050
   9.9058091  19.4881168  30.0255887  10.4026791  18.7351131  29.7056958
   9.1345073  19.5245485  29.4599097  17.7587849  25.1921534  31.6674179
  17.7477725  26.0746249  31.2968112  16.8905228  24.8393085  31.4728716
  10.9887872  28.2452855  27.5994311  10.0544151  28.3654318  27.4299015
  11.1664540  27.3425322  27.3354321   6.4893060  21.6298551  29.7527572
   6.1190848  21.0769592  30.4408478   6.9852153  21.0256685  29.2002572
  14.3760423  24.0870175  28.1344345  14.8420876  24.9198166  28.0604648
  14.8267924  23.6215156  28.8389603  12.4436654  30.4313996  25.1330497
  12.7196498  30.3170591  26.0424371  11.5741153  30.0331481  25.0942670
  12.3477086  16.4550762  32.1735246  11.4340166  16.6854989  32.3417453
  12.7770188  16.5389206  33.0249279  12.1183545  24.6440654  34.6735140
  11.4654995  24.8916561  34.0187593  12.4963924  23.8304792  34.3397618
   9.1143629  32.2371104  30.2106378   8.9668592  31.3087811  30.3913948
   9.9397123  32.2591195  29.7263453   2.9805874  20.8889171  26.0686870
   3.3201946  21.4175092  25.3465478   3.4277994  21.2269577  26.8445437
  12.7177751  33.0599663  31.2971251  13.6424299  32.8542524  31.1595702
  12.5493055  32.8116064  32.2060592   4.9674021  19.3863793  24.2680163
   5.6882383  19.7645045  23.7643880   4.3439325  20.1052669  24.3715141
   9.1105144  20.0908942  25.2038495   9.3268758  20.9733580  24.9027323
   8.6299211  19.6995155  24.4744137   5.7100748  20.0397203  31.8290129
   5.6962317  19.1438296  31.4922427   6.4273176  20.0467867  32.4628415
   7.5626879  20.4734543  33.8743257   7.3044657  21.3951614  33.8727587
   7.0311919  20.0764978  34.5643721  12.5073068  33.5785330  26.6533342
  12.6809945  33.0131753  25.9007195  13.0001959  34.3786225  26.4712832
   5.1137644  18.9211583  27.0977699   5.2353555  17.9928229  27.2968587
   4.8239686  18.9350269  26.1856015   7.9828834  16.6066494  30.2344419
   8.0050531  16.6705827  29.2796399   8.3996893  15.7671002  30.4284925
  18.3612459  26.3421753  28.2723642  18.8043605  25.5929078  27.8742765
  17.4838969  26.3331889  27.8897374  13.4948240  32.8952095  23.7530240
  14.1899145  33.5158787  23.9717555  13.8371390  32.0447446  24.0282618
  15.3939663  30.3451800  25.2817571  15.9190987  30.6839073  24.5566891
  15.3062016  29.4098815  25.0980706   4.0867703  30.5065716  25.1893587
   4.2355823  31.1901180  24.5360259   4.8934146  30.4870806  25.7043042
  17.9045323  27.8126991  30.6646089  18.7392215  28.2516795  30.8283650
  18.0404452  27.3365645  29.8454335   1.8420336  26.5330893  26.1954655
   1.5966378  25.6293223  26.3934866   2.0116250  26.5348044  25.2534133
   9.7829640  13.8254852  31.0980308  10.0631394  13.1578041  31.7240734
  10.5680247  14.0183948  30.5854972  13.6538498  22.2472486  34.8451883
  14.6055921  22.3470584  34.8664107  13.4841949  21.4550755  35.3549967
  11.6752878  19.3328070  35.0311284  11.0802810  19.6133082  34.3357772
  11.3902574  19.8221970  35.8028025  13.4348385  32.6016867  20.7517864
  13.3562016  32.2676730  21.6453622  14.2558052  33.0938635  20.7509336
  16.1326576  25.4678606  33.9594182  16.1002896  24.5294607  34.1453866
  16.7427200  25.5462643  33.2260007   7.9709907  24.3374659  20.0021386
   8.9169012  24.2080867  20.0709805   7.5924152  23.5989321  20.4790815
  16.2821065  22.2589649  34.0052466  15.7660113  21.4748106  33.8182394
  17.1661013  21.9308366  34.1698985  13.9431791  16.0030665  29.9648278
  13.7456613  15.6945753  30.8491610  14.5531497  16.7292304  30.0946208
  20.0318423  24.6702475  33.6974670  19.3051587  24.5358440  33.0891162
  19.6165710  24.9779304  34.5031388   6.1552824  22.2624635  19.9376272
   5.2484279  21.9657748  20.0138985   6.4328805  21.9654453  19.0710558
   7.7714890  16.8061525  26.0920513   6.9615618  16.4608610  26.4675759
   8.4599307  16.4969069  26.6808125   9.7005438  15.8839572  27.7144810
  10.2536477  16.3035025  28.3734833   9.9375524  14.9575320  27.7567766
   4.9251609  19.1211571  20.0788251   5.7870773  19.4466469  20.3384068
   5.1101953  18.3343067  19.5661317  13.0784245  17.9940097  27.2223474
  12.4982914  18.6524901  26.8401526  12.8120178  17.1717442  26.8110891
  11.5287812  17.3945155  29.4244794  12.0287590  17.5061689  28.6159113
  12.1723419  17.0906208  30.0645603  11.8609123  20.1540187  26.2779822
  10.9734978  20.4389838  26.0600017  12.2763112  19.9933951  25.4307099
  15.2123659  20.1786708  29.9934161  15.9884049  20.6683161  30.2658778
  14.4871794  20.6044763  30.4506031  17.6496218  20.8914328  31.0508102
  18.2440709  20.6510064  30.3401410  17.7222802  20.1721458  31.6781638
  11.0052337  29.9184862  20.3727842  11.7088187  30.1234865  20.9885498
  10.2814985  30.4861624  20.6376926  11.8350147  25.6694723  26.4930112
  11.7785348  26.1263275  25.6537745  12.3878489  24.9085408  26.3152955
  15.6454953  21.4584455  27.3180232  15.3891887  21.0581091  28.1488440
  15.0207821  22.1728249  27.1930371  19.9567291  24.1980529  29.8251523
  19.3966849  24.2673718  30.5983085  19.3510794  24.0221513  29.1051019
  12.9139034  30.3567391  22.4226302  13.7484638  29.9248590  22.2403777
  12.7523377  30.1849405  23.3503197  12.5684926  26.8599505  23.7882642
  12.5133730  26.6943776  22.8471086  11.9430982  27.5675538  23.9444831
   5.8781052  16.3607614  23.3667960   5.8659722  17.3049454  23.5236231
   6.7704474  16.1777759  23.0727421   9.6933171  12.9550390  27.6213897
   8.9265567  12.4008877  27.7670579  10.1043876  13.0272259  28.4828048
  18.6678951  34.9313197  28.1391261  17.8120547  34.5420047  27.9596900
  19.0805902  35.0105157  27.2791047  14.0483302  34.7800478  28.9165370
  14.6227054  34.5575659  28.1838562  14.6354285  34.8489172  29.6693971
  16.3505970  31.6541726  27.6440439  15.6970382  31.3390744  27.0197054
  16.3086444  31.0317467  28.3700262  22.9169223  29.3548444  29.6751325
  23.2228099  28.4945807  29.3877240  23.6421827  29.9466064  29.4750319
  19.9498898  35.4200859  25.2038495  20.1662513  36.3025497  24.9027323
  19.4692965  35.0287073  24.4744137  15.9531398  34.2503501  27.0977699
  16.0747310  33.3220147  27.2968587  15.6633441  34.2642187  26.1856015
  18.8222589  31.9358411  30.2344419  18.8444286  31.9997744  29.2796399
  19.2390648  31.0962920  30.4284925  20.6223394  29.1546770  31.0980308
  20.9025148  28.4869959  31.7240734  21.4074001  29.3475866  30.5854972
  18.6108644  32.1353443  26.0920513  17.8009373  31.7900528  26.4675759
  19.2993061  31.8260987  26.6808125  20.5399193  31.2131490  27.7144810
  21.0930231  31.6326943  28.3734833  20.7769279  30.2867238  27.7567766
  15.7645363  34.4503488  20.0788251  16.6264527  34.7758387  20.3384068
  15.9495707  33.6634984  19.5661317  23.9178000  33.3232015  27.2223474
  23.3376669  33.9816819  26.8401526  23.6513932  32.5009359  26.8110891
  22.7002878  35.4832105  26.2779822  21.8128733  35.7681756  26.0600017
  23.1156867  35.3225869  25.4307099  16.7174806  31.6899531  23.3667960
  16.7053476  32.6341371  23.5236231  17.6098228  31.5069677  23.0727421
  20.5326926  28.2842308  27.6213897  19.7659321  27.7300795  27.7670579
  20.9437631  28.3564177  28.4828048  10.7029556   2.5507247  19.2426786
  11.3407966   2.4313995  18.5390126  10.5850399   3.4988091  19.3014738
   7.5119262   2.5034675  19.1788310   7.1737774   2.3875740  18.2908845
   8.3809030   2.1025841  19.1589316   7.9939045   3.6569527  25.1374516
   7.9827686   3.2622325  24.2655019   8.1559685   2.9235600  25.7308287
   8.9505637   8.0241120  10.4799666   8.2993616   8.6095200  10.0933680
   9.7449999   8.5547314  10.5394704   2.8761264   5.1130257  10.8786800
   3.6492140   4.5659244  10.7399676   3.2286663   5.9774506  11.0901262
   4.7146306   6.4406639  24.0853700   4.4236172   7.3452270  23.9700366
   5.3503291   6.4823167  24.7997769   5.6402513   3.8183488  20.6755059
   6.2366085   3.5939510  19.9612022   5.6977485   3.0768233  21.2780507
  10.2570824   0.2758701  16.3179994  11.0433914  -0.1421876  15.9670411
  10.5209529   1.1804793  16.4861642  10.4280902   5.7131552  11.0168650
   9.7926735   5.7866178  11.7289555  10.0978308   6.3025150  10.3387730
  15.6579252   0.2133934  17.2212972  16.3904423  -0.3566849  17.4550802
  14.9018607  -0.1744465  17.6619478   7.2755371   2.6361176  14.4176315
   6.9113579   2.1091797  15.1289236   8.1322487   2.2459645  14.2442800
   9.6736191   6.1268055  21.0803493   9.3736915   7.0293093  20.9719301
   9.3287251   5.8600238  21.9324646  13.0733335  -1.3549405  18.7600931
  12.1650213  -1.4233997  18.4659692  13.0220931  -0.8777460  19.5882756
   4.6556971  12.8912375  14.0474461   4.5781001  13.8420200  14.1262942
   4.0518615  12.5458247  14.7049387  12.5935145   0.5930206  11.2264664
  13.5053001   0.8257593  11.0512362  12.0844792   1.1767250  10.6639743
  10.8775913   5.0154834  24.8625957  11.2859269   4.5737245  24.1180589
  10.1553174   4.4407462  25.1160149  11.2004728   5.5756025  18.6178245
  10.5713590   5.7401739  17.9154313  10.8130390   5.9897634  19.3889209
  15.0793959   6.5110463  15.9722609  14.3944998   6.8909364  15.4219643
  15.1637809   7.1205789  16.7054557  12.3344891   4.1570422  22.5717953
  12.5461786   4.8002182  21.8952334  12.2874639   3.3232738  22.1039883
   6.7532689   5.3130433  15.8828331   7.2171035   5.5918136  15.0932953
   6.4889488   4.4113877  15.7001421   3.6456771   4.8601914  18.8208094
   4.2158128   5.2889183  18.1825578   4.2364882   4.5784499  19.5192279
  13.4490719   7.0342377  20.7440310  14.2708163   6.6322564  20.4622992
  13.4453122   6.9310611  21.6956426   7.2147322   6.5826420  22.9001021
   7.2791755   7.0446828  23.7359192   6.5058246   5.9523785  23.0283330
  21.5396712   3.3781126  17.0925282  20.7860420   2.8088524  16.9369286
  21.6744253   3.3443790  18.0395916   6.9295340   8.2494528  12.7680001
   6.7941015   9.0946064  13.1964849   7.4705153   8.4513805  12.0045935
   2.1919622   8.8835722  15.4230679   2.3686251   9.8053687  15.2351663
   2.9876456   8.5694141  15.8525059   8.5563817   8.8718094  26.8980343
   8.1127671   8.0854473  26.5801247   9.2181030   9.0597245  26.2324234
   3.3150938  10.4013896  21.4241021   3.8658363  10.2730959  20.6518015
   2.4762414  10.7008785  21.0735914  10.6545055   9.1520894  24.9261744
  10.6363530   9.9729775  24.4342013  11.5764975   9.0274969  25.1511885
   7.1118109   6.6665024  25.7685253   7.6446446   5.9053312  25.5384561
   6.5832190   6.3738676  26.5109407  10.2438086   1.7633701   9.8051329
   9.7284710   2.5338305  10.0439717   9.9715395   1.0898837  10.4284391
  15.2172361   4.5166055  11.7404503  14.4401803   4.1777215  11.2959665
  15.8963842   4.5218679  11.0659468  10.0324390  -0.3639207  11.6311111
   9.7274525  -0.0493058  12.4821254  10.9854832  -0.2857787  11.6738444
   8.4770821   5.7951016  13.2804065   7.9492183   5.0603776  12.9677302
   7.9758324   6.5725693  13.0344033  13.4563667   3.9900037  18.3971111
  12.7987342   4.6799298  18.4851240  14.2604067   4.3796469  18.7405097
  12.2669126   2.3444409  16.4475053  12.7801008   2.9774401  16.9496762
  12.9170350   1.7445605  16.0818413   9.5291501  12.3228734   9.2035724
   8.8553199  12.6260430   9.8120682   9.9157322  13.1257814   8.8541181
   9.5285005   1.2185281  13.8236073  10.2756824   1.7306678  13.5143196
   9.7976594   0.8969333  14.6840467   7.8011655   3.7143821  10.8063028
   6.8922874   3.4302854  10.9035497   7.8306739   4.1342900   9.9466335
  13.0330922   7.3250411  14.5754195  12.5793250   6.4841321  14.6319386
  12.4024889   7.9611809  14.9128975  11.4763862   9.1626908  15.5104013
  11.7686836   9.7231965  14.7916379  11.9862482   9.4555469  16.2657173
   6.4397487   9.9407259  16.5997467   6.3973666  10.1668105  15.6705999
   7.3560186   9.7070633  16.7483268   9.8863121   0.4091326  23.4978096
  10.2412508   0.6362799  24.3572562  10.5335252   0.7409703  22.8755351
  15.6160858   3.5309762  14.2027425  15.4778756   3.7211358  13.2748614
  15.2597076   4.2929145  14.6595476  15.6430237   5.5986289  19.2138696
  16.0766744   5.5061578  20.0621750  16.3561818   5.5743790  18.5758712
   4.5563288   6.8170288  16.3959429   5.3503886   6.3220608  16.1942004
   3.8454980   6.2888151  16.0327135   9.3758132   9.1988383  20.7471797
   9.4295154   9.7679319  21.5149513   8.5072914   9.3690268  20.3825834
  16.5045787   5.6409990  21.7471582  16.6981677   6.5455800  21.9930857
  16.4046405   5.1817409  22.5810167  11.5660896   5.7916732  27.3212462
  11.4146402   5.5627284  26.4042546  11.5565575   6.7487334  27.3343807
   8.3346232   3.3648645  22.3058729   9.2638292   3.5159805  22.1327696
   7.9137262   3.4532666  21.4507375   7.1334564   7.3899310  20.0757266
   6.9945649   7.0218094  20.9483205   6.3449160   7.9046949  19.9041224
   7.7282716  12.4908406  11.4182803   7.9034471  12.0196449  12.2328426
   7.0415504  13.1174172  11.6464064   8.6839779   6.7680912  17.4646104
   8.3489611   6.7281682  18.3603754   8.1843725   6.1025628  16.9916514
  13.2753102   8.8235855  25.3988944  13.2165648   8.1395075  24.7319527
  13.6772621   9.5654845  24.9469570   2.2943801  15.6397769  18.1922663
   2.5340399  16.2716293  18.8701682   1.4512997  15.2885809  18.4788022
  13.2770509   6.7875439  23.6302924  12.3897288   6.4501361  23.7529323
  13.8469060   6.0558470  23.8671689   6.8071663  11.4476891  20.5964167
   6.7341834  12.2531863  21.1083472   6.3649056  11.6468857  19.7712189
   6.5961442  10.6848661  14.1066989   5.8128964  11.2270342  14.2005213
   7.2954188  11.2022641  14.5061230  17.7587850   2.1983656  18.3919486
  17.7477726   3.0808372  18.0213419  16.8905229   1.8455207  18.1974023
   9.2670346  11.3463725  22.7522326   9.9798319  11.9811190  22.6798227
   8.7760375  11.4427591  21.9362328  10.9887873   5.2514978  14.3239617
  10.0544152   5.3716440  14.1544322  11.1664542   4.3487445  14.0599627
  14.3760425   1.0932297  14.8589652  14.8420877   1.9260289  14.7849954
  14.8267925   0.6277279  15.5634910   4.3182260   9.0958169  23.5727897
   5.0191719   9.7294652  23.7257291   3.8477375   9.4372900  22.8123536
  12.4436656   7.4376119  11.8575804  12.7196500   7.3232713  12.7669678
  11.5741154   7.0393603  11.8187977  12.1183546   1.6502776  21.3980447
  11.4654996   1.8978684  20.7432900  12.4963926   0.8366914  21.0642924
   9.0790720  11.6862469  15.5008617   9.2613114  10.8684125  15.9636370
   9.9023706  11.9030162  15.0633507   9.4132885  10.6130655  12.7623666
   9.9420652  10.1023109  12.1493828   9.6761105  10.2973185  13.6269199
   2.7688633  11.6645771  15.5221442   2.0999008  12.1491899  15.0385482
   2.6301503  11.9114992  16.4364820   6.9093902  13.6989515  22.1204100
   7.4612210  13.8621136  22.8853185   7.2500095  14.2893953  21.4484125
  11.7604776   8.5250772  27.9752754  12.3044680   9.1380731  27.4807709
  11.1791621   9.0830351  28.4919767  10.0462289  11.6471490  19.1067782
   9.9213428  10.8461230  18.5978728  10.7041380  12.1417684  18.6181752
   9.1143631   9.2433227  16.9351685   8.9668593   8.3149934  17.1159255
   9.9397124   9.2653317  16.4508760  12.5073069  10.5847453  13.3778649
  12.6809946  10.0193875  12.6252501  13.0001960  11.3848348  13.1958139
  18.3612460   3.3483876  14.9968948  18.8043606   2.5991201  14.5988072
  17.4838970   3.3394012  14.6142680  13.4948241   9.9014217  10.4775547
  14.1899146  10.5220910  10.6962862  13.8371391   9.0509568  10.7527925
  15.3939664   7.3513923  12.0062878  15.9190988   7.6901195  11.2812198
  15.3062017   6.4160938  11.8226012   7.0559713  11.2647996  24.1352754
   7.3646840  11.0197143  25.0075454   7.8535195  11.4694635  23.6471625
   7.0780325  13.4185906  16.3658131   6.6385315  12.9262285  17.0590988
   7.8288442  12.8758874  16.1250206   4.5254197   8.9623915  18.4380433
   3.9034207   8.2994620  18.1382661   5.1959064   8.9885047  17.7554080
  15.0833570   7.9846826  27.3114076  14.2929114   7.9670965  26.7718575
  14.8466925   8.5235120  28.0663112  15.2031445   4.8339293  24.6246804
  15.2529450   4.6689300  25.5662327  15.0945369   3.9666552  24.2344685
   4.0867704   7.5127838  11.9138893   4.2355825   8.1963303  11.2605566
   4.8934148   7.4932928  12.4288349  16.7049642   7.2536234  24.8688826
  16.4134451   7.6166215  25.7052287  16.0921774   6.5403243  24.6902158
  17.9045325   4.8189114  17.3891396  18.7392216   5.2578918  17.5528956
  18.0404453   4.3427767  16.5699642  14.9536831   2.3768849  23.3368884
  15.4290952   2.5696495  22.5287735  14.0302396   2.4328035  23.0912267
   7.5863110  10.0075969   9.3850641   7.0137077  10.6266156   8.9321112
   8.1595903  10.5575331   9.9190563  13.6538500  -0.7465391  21.5697189
  14.6055922  -0.6467293  21.5909413  13.4841950  -1.5387123  22.0795274
  10.8060369  10.2913119  10.5159223  11.7391043  10.2258681  10.7192098
  10.7183582  11.1269386  10.0573756  13.4348386   9.6078989   7.4763170
  13.3562018   9.2738853   8.3698928  14.2558053  10.1000757   7.4754643
  16.1326577   2.4740729  20.6839489  16.1002897   1.5356729  20.8699173
  16.7427201   2.5524765  19.9505314  21.9503127   3.5356735  19.8245526
  22.6806516   3.2742024  20.3853229  21.3410073   2.7985457  19.8647594
  20.0318424   1.6764598  20.4219977  19.3051588   1.5420563  19.8136469
  19.6165711   1.9841427  21.2276695   1.5143146   6.1990442  21.0726376
   2.4686400   6.1674384  21.0056307   1.3155670   5.7381065  21.8876602
  11.0052338   6.9246985   7.0973149  11.7088188   7.1296987   7.7130804
  10.2814987   7.4923747   7.3622232  11.8350148   2.6756846  13.2175419
  11.7785350   3.1325397  12.3783051  12.3878491   1.9147531  13.0398262
  19.9567292   1.2042651  16.5496830  19.3966850   1.2735840  17.3228392
  19.3510795   1.0283636  15.8296326   3.0262501  12.6379378  18.3015016
   2.9094885  13.5824811  18.1993706   2.2054947  12.3352940  18.6900815
  12.9139035   7.3629514   9.1471609  13.7484639   6.9310712   8.9649084
  12.7523378   7.1911528  10.0748503  12.5684928   3.8661627  10.5127948
  12.5133731   3.7005899   9.5716392  11.9430983   4.5737660  10.6690138
   4.0517015  13.2907640  21.5170945   4.9544262  13.3231250  21.8337440
   3.8254385  12.3608091  21.5317280   5.8070617  12.0438627  18.1781023
   4.8566248  12.0440488  18.0645395   6.1103103  11.2971361  17.6617058
  14.2099832  19.6862070  15.1685201  13.6464698  19.5952006  14.4001489
  14.0952227  18.8661974  15.6487694  18.8332800  18.9861445  25.1374516
  18.8221440  18.5914243  24.2655019  18.9953439  18.2527517  25.7308287
  11.7564264  21.1813261  18.0069422  12.5485556  20.8404086  17.5915721
  11.9960915  21.2908236  18.9271575  19.7899391  23.3533037  10.4799666
  19.1387371  23.9387118  10.0933680  20.5843754  23.8839232  10.5394704
  13.7155018  20.4422174  10.8786800  14.4885894  19.8951161  10.7399676
  14.0680417  21.3066424  11.0901262  15.5540061  21.7698557  24.0853700
  15.2629927  22.6744188  23.9700366  16.1897045  21.8115084  24.7997769
  16.0521296  16.6014841   8.5105250  16.3046817  16.0796362   7.7488713
  15.1145855  16.4380986   8.6131934  21.2674656  21.0423469  11.0168650
  20.6320489  21.1158096  11.7289555  20.9372063  21.6317068  10.3387730
  26.4973006  15.5425852  17.2212972  27.2298178  14.9725069  17.4550802
  25.7412362  15.1547453  17.6619478  15.7717585  18.5042946  10.7129625
  15.6553843  17.8287850  11.3810710  15.8819845  18.0175320   9.8961778
  24.0198426   9.2547426  21.6807581  23.6881751  10.1242837  21.4568796
  23.4244040   8.9383710  22.3601611  17.7554613  12.9942993   9.4137663
  17.9229015  13.8623230   9.7808134  17.5651782  13.1570275   8.4898952
  23.9127090  13.9742512  18.7600931  23.0043967  13.9057921  18.4659692
  23.8614686  14.4514457  19.5882756  17.7343834  15.4500651  10.3984330
  17.6143459  15.8957702  11.2369810  17.0396422  15.7985968   9.8397868
  15.4950726  28.2204293  14.0474461  15.4174755  29.1712118  14.1262942
  14.8912369  27.8750165  14.7049387  17.9867955  15.3932158  26.7035828
  17.2101290  15.9526078  26.6938693  18.6258519  15.8788941  27.2250698
  25.7788736  12.1758951  20.5378805  25.1363116  12.4691484  19.8918599
  25.2743665  12.0611871  21.3432001  23.4328900  15.9222124  11.2264664
  24.3446756  16.1549511  11.0512362  22.9238547  16.5059168  10.6639743
  16.2414328  18.2017611  26.2653795  16.9829012  18.7402655  25.9888619
  15.5351313  18.8283900  26.4225347  21.7169667  20.3446752  24.8625957
  22.1253023  19.9029162  24.1180589  20.9946929  19.7699379  25.1160149
  18.0700737  15.2819359  22.2359513  18.9161933  15.7058772  22.3794162
  18.0099375  14.6252983  22.9298077  25.9187714  21.8402380  15.9722609
  25.2338752  22.2201282  15.4219643  26.0031563  22.4497707  16.7054557
  21.2200183  12.9423727  23.8940687  20.9761115  13.6965787  23.3574963
  21.4960113  13.3209075  24.7287934  23.1738646  19.4862339  22.5717953
  23.3855541  20.1294099  21.8952334  23.1268394  18.6524656  22.1039883
  20.7764875  12.0980160  19.4754525  19.9149354  12.3961414  19.7671262
  20.8027309  12.3150559  18.5435557  14.9775692  15.3557259  27.0669105
  14.3474352  16.0373540  27.3004502  14.8711779  15.2440341  26.1222243
  10.2720664  15.0229056  17.9935029   9.4819718  15.2786584  17.5175140
  10.7631911  15.8377393  18.0987070  12.2235409  15.3873635  14.9518506
  11.4266573  15.4992329  15.4702002  11.9961002  15.7260287  14.0859396
   8.5558367  15.2759546  20.4250020   8.8066405  16.1606556  20.6907596
   9.0917915  15.0964148  19.6525112  32.3790467  18.7073043  17.0925282
  31.6254175  18.1380441  16.9369286  32.5138008  18.6735708  18.0395916
  17.7689095  23.5786445  12.7680001  17.6334769  24.4237981  13.1964849
  18.3098907  23.7805723  12.0045935  14.2556434   9.6578025  29.4294356
  13.8623380   9.1044224  30.1042000  15.0722575   9.9688604  29.8200874
  11.2218492  21.0961884  13.3407926  11.7343013  21.8905134  13.4913491
  11.8741205  20.3988174  13.2741527  13.0313377  24.2127640  15.4230679
  13.2080005  25.1345605  15.2351663  13.8270210  23.8986059  15.8525059
  17.1724395  11.0735904  27.0214613  17.9134109  11.6743058  26.9419075
  17.4042318  10.3313542  26.4632655  12.3165733  16.2592272  25.2992842
  12.2019248  15.3577529  25.5999941  11.4610251  16.5055968  24.9477659
  19.3957571  24.2010012  26.8980343  18.9521425  23.4146391  26.5801247
  20.0574785  24.3889163  26.2324234  14.1544692  25.7305814  21.4241021
  14.7052117  25.6022877  20.6518015  13.3156168  26.0300703  21.0735914
  21.4938809  24.4812812  24.9261744  21.4757284  25.3021693  24.4342013
  22.4158729  24.3566887  25.1511885  17.9511863  21.9956941  25.7685253
  18.4840200  21.2345230  25.5384561  17.4225944  21.7030593  26.5109407
  21.1181558   7.1017007  21.2978894  20.7745828   7.9918649  21.2218005
  21.4860521   6.9118665  20.4348479   9.1867409  19.4250538  14.1167497
  10.0242631  19.8347546  13.9001204   9.3645677  18.4849980  14.0867690
  21.0831841  17.0925618   9.8051329  20.5678464  17.8630223  10.0439717
  20.8109149  16.4190755  10.4284391  18.6678952  11.9375319  14.8636568
  17.8120548  11.5482170  14.6842207  19.0805904  12.0167280  14.0036353
  20.1978099   9.4721663  19.2628128  19.6942894   9.4351798  18.4495933
  20.4908705  10.3814405  19.3224784  26.0566115  19.8457973  11.7404503
  25.2795558  19.5069133  11.2959665  26.7357596  19.8510596  11.0659468
  20.8718144  14.9652711  11.6311111  20.5668280  15.2798860  12.4821254
  21.8248586  15.0434130  11.6738444  19.3164576  21.1242934  13.2804065
  18.7885938  20.3895693  12.9677302  18.8152079  21.9017610  13.0344033
  14.3752891  13.8167061   9.6606561  13.5390203  14.1541748   9.9815836
  14.2357660  13.6816041   8.7233698  16.3505971   8.6603849  14.3685746
  15.6970384   8.3452866  13.7442360  16.3086445   8.0379590  15.0945569
  17.4617176  18.9423144   6.2839038  16.5544238  18.7112398   6.4830187
  17.9588208  18.1460763   6.4713019  20.3685255  27.6520651   9.2035724
  19.6946954  27.9552348   9.8120682  20.7551077  28.4549732   8.8541181
  18.6405410  19.0435739  10.8063028  17.7316629  18.7594772  10.9035497
  18.6700493  19.4634818   9.9466335  23.8724677  22.6542329  14.5754195
  23.4187004  21.8133238  14.6319386  23.2418644  23.2903727  14.9128975
  22.8157597  13.5834315  15.8054863  22.0780353  13.0711701  16.1365105
  23.0684370  13.1434696  14.9938140  22.9169224   6.3610567  16.3996632
  23.2228101   5.5007930  16.1122547  23.6421829   6.9528187  16.1995626
   9.2093580  16.7641253  14.7878230   9.0117980  16.1710614  14.0629297
   8.6540244  16.4593463  15.5054169  18.3381497  20.5844483   8.1451106
  17.9000927  19.8680342   7.6856744  19.0791938  20.8120598   7.5836198
  20.7256875  15.7383244  23.4978096  21.0806263  15.9654717  24.3572562
  21.3729006  16.0701621  22.8755351  26.4554612  18.8601680  14.2027425
  26.3172511  19.0503276  13.2748614  26.0990831  19.6221063  14.6595476
  15.3957042  22.1462205  16.3959429  16.1897641  21.6512525  16.1942004
  14.6848735  21.6180068  16.0327135  11.7039806  16.2905287  12.4719182
  10.7737394  16.2289743  12.6889144  11.7997278  15.7681240  11.6755823
  11.6225355  12.8160100  15.0597424  11.8832172  13.7305433  14.9506584
  12.4442527  12.3484542  15.2094037  27.3439541  20.9701907  21.7471582
  27.5375431  21.8747718  21.9930857  27.2440159  20.5109326  22.5810167
  18.9975852  10.8559798  24.2461909  18.3503767  11.5549748  24.1526386
  19.7676867  11.2895942  24.6138157  22.4054650  21.1208650  27.3212462
  22.2540156  20.8919202  26.4042546  22.3959329  22.0779252  27.3343807
  18.5676470  27.8200324  11.4182803  18.7428226  27.3488367  12.2328426
  17.8809258  28.4466090  11.6464064  22.4592725  19.4428864   7.7383164
  21.8421896  18.7175693   7.6416217  21.9909213  20.2038225   7.3950238
  24.1146857  24.1527773  25.3988944  24.0559403  23.4686993  24.7319527
  24.5166375  24.8946763  24.9469570  14.8389012  14.2025637  24.2978005
  14.3026369  13.7516376  24.9499601  14.2505720  14.3371546  23.5548469
  13.1337555  30.9689687  18.1922663  13.3734154  31.6008211  18.8701682
  12.2906752  30.6177727  18.4788022  14.2491271  13.6614289   6.8604468
  13.3720737  13.5403089   6.4966715  14.7249024  12.8700367   6.6083357
  24.1164264  22.1167357  23.6302924  23.2291043  21.7793278  23.7529323
  24.6862815  21.3850388  23.8671689   5.7693411  18.4491448  16.9545975
   6.4564451  18.1353178  16.3666991   5.6141540  19.3532813  16.6813227
  10.5728133  13.3381645  21.3830999  10.4886322  12.7307314  20.6481409
   9.7510840  13.8290663  21.3840495  17.4355197  26.0140579  14.1066989
  16.6522719  26.5562259  14.2005213  18.1347942  26.5314559  14.5061230
  20.7451847  11.8235208  16.7501194  21.2420547  11.0705171  16.4302264
  19.9738829  11.8599525  16.1844403  28.5981604  17.5275574  18.3919486
  28.5871481  18.4100289  18.0213419  27.7298984  17.1747125  18.1974023
  20.1064101  26.6755643  22.7522326  20.8192073  27.3103108  22.6798227
  19.6154129  26.7719509  21.9362328  25.2154179  16.4224215  14.8589652
  25.6814631  17.2552207  14.7849954  25.6661680  15.9569197  15.5634910
  15.1576014  24.4250086  23.5727897  15.8585474  25.0586569  23.7257291
  14.6871129  24.7664818  22.8123536  23.2830410  22.7668036  11.8575804
  23.5590254  22.6524631  12.7669678  22.4134909  22.3685521  11.8187977
  23.1870842   8.7904802  18.8980553  22.2733922   9.0209029  19.0662760
  23.6163943   8.8743246  19.7494585  22.9577300  16.9794694  21.3980447
  22.3048751  17.2270601  20.7432900  23.3357680  16.1658832  21.0642924
  20.2526640  25.9422572  12.7623666  20.7814406  25.4315027  12.1493828
  20.5154859  25.6265102  13.6269199  19.0064873  17.7214505  27.8846484
  18.3305510  17.6208634  28.5548859  19.8292507  17.5653719  28.3482481
  10.7543732  23.9586442  20.5058999  11.3397169  23.2130129  20.6386904
  10.5568571  24.2690398  21.3895663  13.6082388  26.9937689  15.5221442
  12.9392763  27.4783817  15.0385482  13.4695257  27.2406909  16.4364820
   5.3461387  16.5292042  19.2263442   5.3845487  15.9955632  20.0200561
   4.8401680  16.0027247  18.6074420  17.7487656  29.0281432  22.1204100
  18.3005964  29.1913054  22.8853185  18.0893850  29.6185870  21.4484125
  12.7252149  11.3756582  22.7225985  12.7893476  12.2371413  22.3103382
  12.6619270  10.7630584  21.9898343  12.2004422  13.4479715  26.3699019
  12.8276461  13.0656792  26.9836543  11.3432341  13.2293917  26.7354712
  22.5998531  23.8542690  27.9752754  23.1438435  24.4672648  27.4807709
  22.0185375  24.4122268  28.4919767   8.9769965  15.2556144  12.3017374
   9.2723406  14.3466822  12.2484428   8.0758000  15.2343883  11.9798376
  15.3090525  10.6666567  24.5585574  15.8324927  10.9128863  25.3211884
  15.0902859  11.4986602  24.1388712  10.7057806  12.9370242  12.4256699
  10.3770512  12.0567620  12.2431805  11.0597177  12.8817910  13.3133088
  13.8199629  13.2243211  12.7932177  14.1595702  13.7529133  12.0710785
  14.2671750  13.5623617  13.5690743  17.1659542   8.6929574  20.6962568
  17.9885611   8.2190053  20.5741458  17.4097606   9.4720058  21.1961254
  15.8067777  11.7217833  10.9925469  16.5276139  12.0999086  10.4889186
  15.1833081  12.4406710  11.0960447  19.9498900  12.4262982  11.9283802
  20.1662514  13.3087620  11.6272630  19.4692967  12.0349195  11.1989444
  18.4020634  12.8088583  20.5988563  18.1438412  13.7305654  20.5972894
  17.8705675  12.4119018  21.2889027  23.3466823  25.9139370  13.3778649
  23.5203701  25.3485793  12.6252501  23.8395714  26.7140265  13.1958139
   9.1643783  17.9254040  21.4442208   8.6197251  18.7013847  21.5762482
  10.0423133  18.2724844  21.2861329  15.9531400  11.2565623  13.8223006
  16.0747311  10.3282270  14.0213894  15.6633442  11.2704309  12.9101321
  18.8222590   8.9420534  16.9589726  18.8444287   9.0059867  16.0041705
  19.2390649   8.1025042  17.1530232  29.2006214  18.6775793  14.9968948
  29.6437360  17.9283119  14.5988072  28.3232725  18.6685930  14.6142680
  24.3341996  25.2306135  10.4775547  25.0292900  25.8512828  10.6962862
  24.6765146  24.3801486  10.7527925   9.9509805  17.0523936  24.3372364
   9.2091541  17.2006571  24.9236995   9.6302549  17.3132201  23.4739114
  26.2333419  22.6805840  12.0062878  26.7584743  23.0193113  11.2812198
  26.1455771  21.7452856  11.8226012  17.8953468  26.5939914  24.1352754
  18.2040594  26.3489061  25.0075454  18.6928950  26.7986552  23.6471625
  17.9174080  28.7477824  16.3658131  17.4779070  28.2554202  17.0590988
  18.6682197  28.2050791  16.1250206  10.3966419  24.9389365  16.3682759
  11.2224438  24.6393136  15.9881403  10.0460471  24.1696987  16.8172548
   8.5975024  22.8575691  17.3271693   7.7606932  22.4297865  17.1455694
   8.5698669  23.0508134  18.2642484  15.4372479  12.7697621  28.0312939
  15.4860635  13.6459744  27.6490708  15.9794993  12.2275014  27.4584582
  25.9227325  23.3138744  27.3114076  25.1322869  23.2962883  26.7718575
  25.6860679  23.8527038  28.0663112  26.0425200  20.1631210  24.6246804
  26.0923205  19.9981218  25.5662327  25.9339123  19.2958469  24.2344685
  14.9261459  22.8419756  11.9138893  15.0749579  23.5255220  11.2605566
  15.7327902  22.8224846  12.4288349  23.3328962  16.1462138  25.9406111
  24.2338825  16.0068603  25.6490109  23.4076937  16.3116593  26.8804288
  17.6671768  13.5228993  24.7859297  16.7975077  13.8162559  24.5141886
  17.9031248  14.1069438  25.5066561  27.5443397  22.5828152  24.8688826
  27.2528205  22.9458132  25.7052287  26.9315528  21.8695160  24.6902158
  28.7439079  20.1481032  17.3891396  29.5785970  20.5870836  17.5528956
  28.8798208  19.6719685  16.5699642  25.7930585  17.7060767  23.3368884
  26.2684707  17.8988413  22.5287735  24.8696150  17.7619952  23.0912267
  12.6814092  18.8684934  12.9199962  12.4360134  17.9647264  13.1180172
  12.8510006  18.8702084  11.9779440  20.3710802   9.7408610  22.3024718
  20.8892745  10.4769637  21.9771206  20.0165934  10.0472603  23.1371477
  11.9509739  14.6013291  10.4186124  11.2578984  14.6757646   9.7626160
  11.7061491  13.8373635  10.9407640  20.6223396   6.1608893  17.8225614
  20.9025149   5.4932082  18.4486041  21.4074003   6.3537988  17.3100278
  18.4256864  25.3367887   9.3850641  17.8530831  25.9558074   8.9321112
  18.9989658  25.8867248   9.9190563  24.4932254  14.5826527  21.5697189
  25.4449677  14.6824624  21.5909413  24.3235704  13.7904795  22.0795274
  22.5146634  11.6682110  21.7556590  21.9196566  11.9487123  21.0603079
  22.2296330  12.1576011  22.5273331  21.6454124  25.6205037  10.5159223
  22.5784797  25.5550598  10.7192098  21.5577337  26.4561304  10.0573756
  24.2742141  24.9370907   7.4763170  24.1955772  24.6030771   8.3698928
  25.0951807  25.4292675   7.4754643  26.9720332  17.8032646  20.6839489
  26.9396652  16.8648647  20.8699173  27.5820955  17.8816683  19.9505314
  18.8103663  16.6728699   6.7266693  19.7562767  16.5434907   6.7955111
  18.4317908  15.9343361   7.2036121  27.1214820  14.5943690  20.7297772
  26.6053869  13.8102146  20.5427701  28.0054769  14.2662406  20.8944292
  24.7825547   8.3384705  16.6893585  24.5850368   8.0299793  17.5736917
  25.3925253   9.0646344  16.8191515  32.7896882  18.8648653  19.8245526
  33.5200270  18.6033941  20.3853229  32.1803827  18.1277375  19.8647594
  30.8712179  17.0056516  20.4219977  30.1445342  16.8712481  19.8136469
  30.4559466  17.3133344  21.2276695  18.6942355  20.7246445  28.1867350
  19.6145365  20.9025044  28.3807397  18.6591938  19.7802491  28.0347049
  16.9946580  14.5978676   6.6621578  16.0878035  14.3011788   6.7384292
  17.2722561  14.3008494   5.7955865   7.9124520  15.9185039  17.1120625
   7.5927305  15.0650347  16.8194999   7.3657948  16.1333617  17.8678592
  18.6108646   9.1415565  12.8165820  17.8009374   8.7962650  13.1921066
  19.2993062   8.8323109  13.4053431  20.5399194   8.2193612  14.4390116
  21.0930232   8.6389066  15.0980139  20.7769280   7.2929360  14.4813072
  16.5632293  14.2080686  30.2192880  16.4629020  15.1575043  30.1504971
  16.3453835  13.8798925  29.3468950  15.7645364  11.4565611   6.8033558
  16.6264528  11.7820509   7.0629375  15.9495709  10.6697107   6.2906623
   7.7812780  19.5387951  19.0813746   7.0876252  19.1241903  18.5683701
   8.5285771  19.5808487  18.4847165  23.9178001  10.3294137  13.9468781
  23.3376670  10.9878941  13.5646833  23.6513934   9.5071482  13.5356198
  22.3681567   9.7299195  16.1490101  22.8681346   9.8415730  15.3404420
  23.0117175   9.4260248  16.7890909  16.4263563  17.6377825  29.0357942
  15.9430645  18.4378185  29.2421831  16.5124502  17.6485770  28.0825386
   9.6949523  19.4706204  16.9579761   9.6720211  19.5693892  16.0061644
  10.0050159  20.3171355  17.2796927  12.3536901  21.5282359  21.0726376
  13.3080154  21.4966302  21.0056307  12.1549424  21.0672983  21.8876602
  12.9436283  20.0983475  23.6397173  13.7629172  20.5927554  23.6632011
  13.2173090  19.1815444  23.6114741  22.7002879  12.4894228  13.0025129
  21.8128734  12.7743878  12.7845324  23.1156868  12.3287991  12.1552406
  26.0517415  12.5140749  16.7179468  26.8277805  13.0037201  16.9904085
  25.3265549  12.9398803  17.1751338  28.4889974  13.2268368  17.7753409
  29.0834465  12.9864104  17.0646717  28.5616557  12.5075498  18.4026945
  10.7087129  27.0701979  18.0896573  10.5741597  26.3102380  17.5234572
  10.2919192  27.7942879  17.6225362  21.8446092  22.2538902   7.0973149
  22.5481943  22.4588905   7.7130804  21.1208741  22.8215664   7.3622232
  26.4848709  13.7938496  14.0425538  26.2285643  13.3935131  14.8733746
  25.8601577  14.5082289  13.9175678  30.7961046  16.5334569  16.5496830
  30.2360604  16.6027758  17.3228392  30.1904550  16.3575553  15.8296326
  13.8656255  27.9671296  18.3015016  13.7488639  28.9116728  18.1993706
  13.0448702  27.6644857  18.6900815  23.7532790  22.6921432   9.1471609
  24.5878394  22.2602630   8.9649084  23.5917133  22.5203445  10.0748503
  23.4078682  19.1953545  10.5127948  23.3527486  19.0297816   9.5716392
  22.7824737  19.9029578  10.6690138   8.1971197  14.4321609  24.3389370
   8.8430061  13.9220563  24.8276596   7.9888348  15.1690291  24.9132796
  20.7224589  21.5002457  29.8381511  21.5915749  21.6743109  29.4768146
  20.2431341  22.3196874  29.7157240  16.7174807   8.6961654  10.0913267
  16.7053477   9.6403494  10.2481537  17.6098229   8.5131799   9.7972728
  14.8910769  28.6199558  21.5170945  15.7938016  28.6523168  21.8337440
  14.6648139  27.6900009  21.5317280  16.6464371  27.3730544  18.1781023
  15.6960002  27.3732406  18.0645395  16.9496858  26.6263279  17.6617058
  20.5326927   5.2904431  14.3459203  19.7659323   4.7362917  14.4915886
  20.9437632   5.3626299  15.2073355  12.5368688  11.5789226  28.4364385
  13.4000150  11.2226031  28.6467709  11.9634099  11.2403121  29.1239789
  29.1906771  33.1618511  19.1788310  28.8525283  33.0459576  18.2908845
  30.0596539  32.7609676  19.1589316  25.0493587  35.0153987  15.1685201
  24.4858452  34.9243924  14.4001489  24.9345982  34.1953892  15.6487694
  22.5958019  36.5105179  18.0069422  23.3879311  36.1696003  17.5915721
  22.8354669  36.6200154  18.9271575  24.5548773  35.7714092  10.8786800
  25.3279649  35.2243079  10.7399676  24.9074172  36.6358341  11.0901262
  27.3190022  34.4767323  20.6755059  27.9153594  34.2523345  19.9612022
  27.3764994  33.7352068  21.2780507  31.9358333  30.9342537  16.3179994
  32.7221423  30.5161960  15.9670411  32.1997038  31.8388629  16.4861642
  26.6111339  33.8334864  10.7129625  26.4947597  33.1579768  11.3810710
  26.7213599  33.3467238   9.8961778  28.9542880  33.2945011  14.4176315
  28.5901087  32.7675632  15.1289236  29.8109996  32.9043480  14.2442800
  34.8592181  24.5839344  21.6807581  34.5275506  25.4534755  21.4568796
  34.2637794  24.2675628  22.3601611  28.5948367  28.3234911   9.4137663
  28.7622770  29.1915147   9.7808134  28.4045536  28.4862193   8.4898952
  24.8036182  33.2365687  17.1140198  23.8786678  33.1041901  17.3217890
  25.0520595  34.0159906  17.6110140  34.7520844  29.3034430  18.7600931
  33.8437722  29.2349838  18.4659692  34.7008440  29.7806375  19.5882756
  28.5737588  30.7792568  10.3984330  28.4537213  31.2249619  11.2369810
  27.8790176  31.1277886   9.8397868  22.1644993  32.8798960  17.9483987
  22.2937374  33.1333439  18.8623399  21.4842444  33.4726668  17.6288642
  27.0808082  33.5309529  26.2653795  27.8222767  34.0694573  25.9888619
  26.3745068  34.1575818  26.4225347  28.9094492  30.6111276  22.2359513
  29.7555687  31.0350690  22.3794162  28.8493130  29.9544901  22.9298077
  32.0593937  28.2715645  23.8940687  31.8154869  29.0257705  23.3574963
  32.3353868  28.6500992  24.7287934  31.6158629  27.4272078  19.4754525
  30.7543108  27.7253331  19.7671262  31.6421064  27.6442477  18.5435557
  25.3244280  35.5185750  18.8208094  25.8945637  35.9473018  18.1825578
  25.9152391  35.2368334  19.5192279  27.3689085  32.0937421  12.6917896
  28.0713128  32.5458464  13.1591822  27.0369713  31.4521239  13.3197789
  25.8169446  30.6849177  27.0669105  25.1868107  31.3665458  27.3004502
  25.7105534  30.5732259  26.1222243  21.1114418  30.3520973  17.9935029
  20.3213472  30.6078502  17.5175140  21.6025666  31.1669311  18.0987070
  23.0629164  30.7165552  14.9518506  22.2660327  30.8284247  15.4702002
  22.8354756  31.0552205  14.0859396  19.3952121  30.6051464  20.4250020
  19.6460160  31.4898474  20.6907596  19.9311670  30.4256065  19.6525112
  25.0950189  24.9869943  29.4294356  24.7017134  24.4336142  30.1042000
  25.9116329  25.2980521  29.8200874  22.0612247  36.4253801  13.3407926
  22.5736767  37.2197051  13.4913491  22.7134959  35.7280092  13.2741527
  28.0118150  26.4027822  27.0214613  28.7527863  27.0034975  26.9419075
  28.2436073  25.6605460  26.4632655  23.1559488  31.5884189  25.2992842
  23.0413003  30.6869447  25.5999941  22.3004006  31.8347886  24.9477659
  31.9575313  22.4308925  21.2978894  31.6139582  23.3210567  21.2218005
  32.3254275  22.2410583  20.4348479  20.0261163  34.7542456  14.1167497
  20.8636385  35.1639464  13.9001204  20.2039431  33.8141898  14.0867690
  29.5072706  27.2667237  14.8636568  28.6514303  26.8774087  14.6842207
  29.9199658  27.3459198  14.0036353  31.0371853  24.8013580  19.2628128
  30.5336649  24.7643715  18.4495933  31.3302460  25.7106323  19.3224784
  31.7111899  30.2944628  11.6311111  31.4062034  30.6090777  12.4821254
  32.6642341  30.3726048  11.6738444  24.8877058  27.1154518  15.6410676
  25.4620810  26.8929699  14.9083869  25.4748040  27.1843212  16.3939277
  25.2146645  29.1458979   9.6606561  24.3783957  29.4833665   9.9815836
  25.0751415  29.0107959   8.7233698  27.1899726  23.9895767  14.3685746
  26.5364138  23.6744784  13.7442360  27.1480200  23.3671507  15.0945569
  30.4237466  30.4777700  18.6933393  29.5060027  30.6992647  18.5355081
  30.8397610  30.5524011  17.8345101  31.2072514  31.8769116  13.8236073
  31.9544333  32.3890513  13.5143196  31.4764103  31.5553169  14.6840467
  33.6551351  28.9126232  15.8054863  32.9174108  28.4003618  16.1365105
  33.9078125  28.4726614  14.9938140  33.7562978  21.6902484  16.3996632
  34.0621855  20.8299848  16.1122547  34.4815583  22.2820104  16.1995626
  20.0487334  32.0933171  14.7878230  19.8511734  31.5002532  14.0629297
  19.4933998  31.7885381  15.5054169  28.0284058  31.9856277  16.9072823
  28.0832668  31.0330114  16.8315300  27.2175260  32.1415716  17.3914122
  25.9676418  30.6033337  14.6663202  25.1544284  30.9027508  15.0728394
  26.4635412  30.2089026  15.3837684  31.5650630  31.0675162  23.4978096
  31.9200017  31.2946635  24.3572562  32.2122761  31.3993538  22.8755351
  25.4590493  28.1751693  20.2824437  26.0989872  28.0340452  19.5847400
  24.6268023  27.8886206  19.9063039  22.5433560  31.6197205  12.4719182
  21.6131148  31.5581660  12.6889144  22.6391032  31.0973157  11.6755823
  22.4619109  28.1452018  15.0597424  22.7225926  29.0597351  14.9506584
  23.2836282  27.6776460  15.2094037  23.9344035  29.5589775  22.2296248
  24.6067088  29.3507137  21.5808897  23.1073821  29.3611861  21.7901481
  29.8369607  26.1851716  24.2461909  29.1897522  26.8841665  24.1526386
  30.6070622  26.6187860  24.6138157  24.3371532  32.8332378  22.9898685
  24.1991330  32.1012617  23.5910224  25.2476455  32.7441278  22.7082873
  26.9653832  32.5452337  22.4782365  27.6753451  31.9045529  22.4368983
  26.9223141  32.7965232  23.4008546  25.6782766  29.5317555  24.2978005
  25.1420123  29.0808293  24.9499601  25.0899475  29.6663464  23.5548469
  25.0885025  28.9906206   6.8604468  24.2114492  28.8695007   6.4966715
  25.5642778  28.1992285   6.6083357  16.6087166  33.7783366  16.9545975
  17.2958205  33.4645096  16.3666991  16.4535294  34.6824731  16.6813227
  21.4121888  28.6673563  21.3830999  21.3280076  28.0599232  20.6481409
  20.5904594  29.1582581  21.3840495  31.5845602  27.1527126  16.7501194
  32.0814301  26.3997088  16.4302264  30.8132583  27.1891443  16.1844403
  28.1680570  29.2944509  16.4772879  27.7978358  28.7415550  17.1653784
  28.6639663  28.6902643  15.9247879  34.0264596  24.1196720  18.8980553
  33.1127676  24.3500946  19.0662760  34.4557698  24.2035164  19.7494585
  16.1855142  31.8583959  19.2263442  16.2239241  31.3247550  20.0200561
  15.6795434  31.3319165  18.6074420  23.5645904  26.7048500  22.7225985
  23.6287230  27.5663331  22.3103382  23.5013024  26.0922502  21.9898343
  23.0398176  28.7771632  26.3699019  23.6670215  28.3948710  26.9836543
  22.1826095  28.5585834  26.7354712  19.8163719  30.5848062  12.3017374
  20.1117160  29.6758740  12.2484428  18.9151755  30.5635801  11.9798376
  26.1484280  25.9958485  24.5585574  26.6718682  26.2420781  25.3211884
  25.9296613  26.8278519  24.1388712  21.5451561  28.2662159  12.4256699
  21.2164267  27.3859538  12.2431805  21.8990932  28.2109828  13.3133088
  24.6593384  28.5535129  12.7932177  24.9989456  29.0821050  12.0710785
  25.1065504  28.8915535  13.5690743  27.3536825  26.9372180  22.2435245
  27.0133645  26.1379993  22.6455925  26.6475831  27.2373891  21.6712078
  26.6461531  27.0509751  10.9925469  27.3669894  27.4291003  10.4889186
  26.0226835  27.7698627  11.0960447  30.7892654  27.7554900  11.9283802
  31.0056268  28.6379537  11.6272630  30.3086721  27.3641113  11.1989444
  25.5291875  30.7140613  18.5054546  25.3836456  31.0280916  19.3978828
  25.0517079  31.3325513  17.9525445  27.3888258  27.7043161  18.5535436
  27.3749827  26.8084254  18.2167734  28.1060686  27.7113825  19.1873722
  29.2414389  28.1380501  20.5988563  28.9832167  29.0597572  20.5972894
  28.7099429  27.7410936  21.2889027  20.0037538  33.2545957  21.4442208
  19.4591006  34.0305765  21.5762482  20.8816887  33.6016762  21.2861329
  26.7925154  26.5857541  13.8223006  26.9141065  25.6574187  14.0213894
  26.5027197  26.5996227  12.9101321  29.6616345  24.2712452  16.9589726
  29.6838041  24.3351785  16.0041705  30.0784404  23.4316960  17.1530232
  20.7903559  32.3815853  24.3372364  20.0485295  32.5298489  24.9236995
  20.4696304  32.6424119  23.4739114  26.2766234  28.0989538  28.0312939
  26.3254389  28.9751661  27.6490708  26.8188748  27.5566931  27.4584582
  28.5065522  28.8520911  24.7859297  27.6368832  29.1454477  24.5141886
  28.7425003  29.4361356  25.5066561  23.5207846  34.1976851  12.9199962
  23.2753888  33.2939181  13.1180172  23.6903761  34.1994002  11.9779440
  31.2104556  25.0700528  22.3024718  31.7286500  25.8061555  21.9771206
  30.8559689  25.3764521  23.1371477  22.7903494  29.9305209  10.4186124
  22.0972739  30.0049564   9.7626160  22.5455246  29.1665553  10.9407640
  31.4617150  21.4900810  17.8225614  31.7418904  20.8223999  18.4486041
  32.2467757  21.6829906  17.3100278  33.3540388  26.9974028  21.7556590
  32.7590320  27.2779040  21.0603079  33.0690085  27.4867928  22.5273331
  18.7518275  31.2476957  17.1120625  18.4321059  30.3942265  16.8194999
  18.2051703  31.4625535  17.8678592  22.5298182  33.9639398  20.8290131
  22.7484192  34.8956506  20.8478165  22.9423956  33.6047372  21.6144935
  29.4502400  24.4707483  12.8165820  28.6403128  24.1254568  13.1921066
  30.1386817  24.1615027  13.4053431  31.3792948  23.5485530  14.4390116
  31.9323987  23.9680983  15.0980139  31.6163035  22.6221278  14.4813072
  26.6039119  26.7857529   6.8033558  27.4658283  27.1112427   7.0629375
  26.7889463  25.9989024   6.2906623  18.6206535  34.8679868  19.0813746
  17.9270006  34.4533821  18.5683701  19.3679526  34.9100405  18.4847165
  34.7571755  25.6586055  13.9468781  34.1770424  26.3170859  13.5646833
  34.4907688  24.8363400  13.5356198  33.2075322  25.0591113  16.1490101
  33.7075100  25.1707647  15.3404420  33.8510930  24.7552166  16.7890909
  20.5343277  34.7998122  16.9579761  20.5113965  34.8985809  16.0061644
  20.8443914  35.6463273  17.2796927  23.1930655  36.8574277  21.0726376
  24.1473909  36.8258219  21.0056307  22.9943179  36.3964901  21.8876602
  23.7830037  35.4275393  23.6397173  24.6022926  35.9219472  23.6632011
  24.0566845  34.5107361  23.6114741  33.5396633  27.8186145  13.0025129
  32.6522488  28.1035796  12.7845324  33.9550623  27.6579909  12.1552406
  19.0364951  29.7613527  24.3389370  19.6823815  29.2512481  24.8276596
  18.8282103  30.4982209  24.9132796  27.5568562  24.0253572  10.0913267
  27.5447232  24.9695412  10.2481537  28.4491984  23.8423717   9.7972728
  31.3720681  20.6196348  14.3459203  30.6053077  20.0654835  14.4915886
  31.7831386  20.6918217  15.2073355  23.3762442  26.9081144  28.4364385
  24.2393904  26.5517949  28.6467709  22.8027853  26.5695039  29.1239789
  15.5540062  -1.2239321  10.8099006  15.2629928  -0.3193690  10.6945673
  16.1897046  -1.1822793  11.5243076  19.3957572   1.2072135  13.6225650
  18.9521426   0.4208513  13.3046554  20.0574786   1.3951285  12.9569540
  14.1544693   2.7367936   8.1486328  14.7052119   2.6085000   7.3763322
  13.3156169   3.0362825   7.7981221  21.4938810   1.4874935  11.6507051
  21.4757286   2.3083816  11.1587320  22.4158730   1.3629010  11.8757192
  20.2151888   1.5342423   7.4717104  20.2688910   2.1033360   8.2394820
  19.3466669   1.7044308   7.1071141  13.1337557   7.9751809   4.9167970
  13.3734155   8.6070333   5.5946988  12.2906753   7.6239849   5.2033329
  17.6465419   3.7830932   7.3209474  17.5735590   4.5885903   7.8328778
  17.2042812   3.9822897   6.4957495  20.1064102   3.6817766   9.4767632
  20.8192074   4.3165230   9.4043534  19.6154131   3.7781632   8.6607634
  15.1576016   1.4312209  10.2973203  15.8585475   2.0648692  10.4502597
  14.6871131   1.7726941   9.5368843  17.7487657   6.0343555   8.8449407
  18.3005966   6.1975177   9.6098492  18.0893851   6.6247993   8.1729432
  20.8856045   3.9825531   5.8313089  20.7607184   3.1815270   5.3224034
  21.5435136   4.4771724   5.3427059  23.5571508   2.4015826   4.7461864
  24.4818056   2.1958687   4.6086315  23.3886812   2.1532227   5.6551205
  17.8953469   3.6002037  10.8598061  18.2040595   3.3551183  11.7320761
  18.6928951   3.8048675  10.3716931  14.8910771   5.6261680   8.2416251
  15.7938017   5.6585291   8.5582746  14.6648141   4.6962131   8.2562587
  29.1906772  10.1680633   5.9033617  28.8525284  10.0521698   5.0154152
  30.0596541   9.7671799   5.8834623  25.0493588  12.0216110   1.8930508
  24.4858453  11.9306047   1.1246796  24.9345983  11.2016014   2.3733000
  29.6726555  11.3215485  11.8619822  29.6615196  10.9268283  10.9900326
  29.8347195  10.5881558  12.4553594  22.5958020  13.5167301   4.7314728
  23.3879312  13.1758126   4.3161028  22.8354670  13.6262276   5.6516882
  26.3933817  14.1052597  10.8099006  26.1023683  15.0098228  10.6945673
  27.0290801  14.1469125  11.5243076  27.3190023  11.4829445   7.4000366
  27.9153596  11.2585468   6.6857329  27.3764995  10.7414191   8.0025814
  31.3523702  13.7914012   7.8048800  31.0524425  14.6939051   7.6964607
  31.0074761  13.5246196   8.6569953  24.8036183  10.2427809   3.8385505
  23.8786680  10.1104023   4.0463196  25.0520596  11.0222029   4.3355447
  22.1644994   9.8861083   4.6729294  22.2937375  10.1395562   5.5868705
  21.4842446  10.4788791   4.3533949  28.8261711   7.7286198  13.4281135
  28.0495045   8.2880118  13.4183999  29.4652274   8.2142981  13.9496005
  27.0808084  10.5371652  12.9899102  27.8222768  11.0756696  12.7133925
  26.3745069  11.1637940  13.1470653  32.5563423  12.6800792  11.5871263
  32.9646779  12.2383203  10.8425896  31.8340685  12.1053420  11.8405456
  28.9094493   7.6173399   8.9604820  29.7555688   8.0412812   9.1039469
  28.8493131   6.9607023   9.6543383  32.8792238  13.2401983   5.3423552
  32.2501100  13.4047697   4.6399620  32.4917900  13.6543592   6.1134516
  32.0593939   5.2777767  10.6185994  31.8154870   6.0319828  10.0820269
  32.3353869   5.6563115  11.4533241  34.0132401  11.8216380   9.2963259
  34.2249297  12.4648139   8.6197640  33.9662150  10.9878696   8.8285189
  28.4320200  12.9776391   2.6073637  28.8958545  13.2564094   1.8178260
  28.1676998  12.0759835   2.4246728  25.3244281  12.5247872   5.5453400
  25.8945638  12.9535141   4.9070885  25.9152393  12.2430457   6.2437586
  25.8169447   7.6911300  13.7914412  25.1868108   8.3727581  14.0249809
  25.7105535   7.5794381  12.8467550  21.1114420   7.3583096   4.7180336
  20.3213474   7.6140624   4.2420446  21.6025667   8.1731434   4.8232376
  23.0629165   7.7227675   1.6763813  22.2660328   7.8346369   2.1947308
  22.8354757   8.0614327   0.8104703  28.8934833  14.2472378   9.6246327
  28.9579265  14.7092786  10.4604499  28.1845757  13.6169743   9.7528637
  19.3952123   7.6113586   7.1495327  19.6460161   8.4960596   7.4152903
  19.9311671   7.4318188   6.3770418  22.0612248  13.4315924   0.0653233
  22.5736768  14.2259174   0.2158797  22.7134961  12.7342214  -0.0013166
  23.8707132  16.5481680   2.1475986  24.0473761  17.4699645   1.9596970
  24.6663966  16.2340099   2.5770366  23.1559489   8.5946312  12.0238149
  23.0413004   7.6931569  12.3245248  22.3004007   8.8410009  11.6722966
  30.2351327  16.5364052  13.6225650  29.7915181  15.7500431  13.3046554
  30.8968540  16.7243203  12.9569540  24.9938448  18.0659854   8.1486328
  25.5445873  17.9376917   7.3763322  24.1549924  18.3654743   7.7981221
  32.3332565  16.8166852  11.6507051  32.3151040  17.6375733  11.1587320
  33.2552485  16.6920927  11.8757192  28.7905619  14.3310982  12.4930559
  29.3233956  13.5699270  12.2629867  28.2619700  14.0384633  13.2354714
  20.0261165  11.7604578   0.8412803  20.8636387  12.1701586   0.6246511
  20.2039432  10.8204020   0.8112997  28.0284059   8.9918400   3.6318130
  28.0832669   8.0392236   3.5560606  27.2175261   9.1477839   4.1159428
  28.1184997  17.6053217   3.3242773  28.0761176  17.8314063   2.3951305
  29.0347696  17.3716591   3.4728574  31.5650631   8.0737284  10.2223402
  31.9200019   8.3008757  11.0817868  32.2122762   8.4055661   9.6000658
  25.4590494   5.1813815   7.0069744  26.0989873   5.0402574   6.3092707
  24.6268025   4.8948329   6.6308346  26.2350798  14.4816246   3.1204736
  27.0291396  13.9866566   2.9187311  25.5242490  13.9534109   2.7572442
  31.0545642  16.8634341   7.4717104  31.1082665  17.4325277   8.2394820
  30.1860424  17.0336226   7.1071141  23.9344036   6.5651897   8.9541555
  24.6067089   6.3569259   8.3054204  23.1073822   6.3673983   8.5146787
  33.2448406  13.4562690  14.0457769  33.0933912  13.2273242  13.1287853
  33.2353085  14.4133292  14.0589114  30.0133742  11.0294603   9.0304035
  30.9425802  11.1805763   8.8573003  29.5924772  11.1178624   8.1752682
  28.8122074  15.0545268   6.8002573  28.6733160  14.6864052   7.6728511
  28.0236670  15.5692907   6.6286531  30.3627289  14.4326870   4.1891411
  30.0277122  14.3927640   5.0849061  29.8631235  13.7671586   3.7161821
  24.3371533   9.8394500   9.7143992  24.1991331   9.1074739  10.3155531
  25.2476457   9.7503400   9.4328180  26.9653834   9.5514460   9.2027672
  27.6753452   8.9107652   9.1614290  26.9223142   9.8027354  10.1253852
  34.9540612  16.4881813  12.1234251  34.8953159  15.8041033  11.4564834
  35.3560131  17.2300803  11.6714877  25.6782768   6.5379678  11.0223311
  25.1420125   6.0870416  11.6744908  25.0899476   6.6725586  10.2793776
  23.9731311  23.3043727   4.9167970  24.2127909  23.9362251   5.5946988
  23.1300508  22.9531767   5.2033329  34.9558020  14.4521397  10.3548231
  34.0684798  14.1147319  10.4774629  35.5256571  13.7204428  10.5916996
  16.6087167  10.7845489   3.6791282  17.2958207  10.4707219   3.0912297
  16.4535295  11.6886853   3.4058533  21.4121889   5.6735685   8.1076306
  21.3280078   5.0661355   7.3726716  20.5904595   6.1644704   8.1085802
  28.4859173  19.1122849   7.3209474  28.4129345  19.9177821   7.8328778
  28.0436566  19.3114815   6.4957495  30.9457857  19.0109683   9.4767632
  31.6585829  19.6457148   9.4043534  30.4547885  19.1073549   8.6607634
  25.9969770  16.7604127  10.2973203  26.6979230  17.3940610  10.4502597
  25.5264885  17.1018858   9.5368843  33.7971056   9.3148734   8.1225754
  33.1442506   9.5624642   7.4678206  34.1751436   8.5012872   7.7888231
  29.8458629  10.0568545  14.6091791  29.1699266   9.9562675  15.2794166
  30.6686263   9.9007759  15.0727788  21.5937488  16.2940482   7.2304306
  22.1790925  15.5484170   7.3632210  21.3962327  16.6044439   8.1140970
  24.4476143  19.3291729   2.2466748  23.7786519  19.8137857   1.7630788
  24.3089013  19.5760950   3.1610127  16.1855143   8.8646082   5.9508749
  16.2239242   8.3309673   6.7445867  15.6795436   8.3381288   5.3319726
  28.5881412  21.3635473   8.8449407  29.1399720  21.5267094   9.6098492
  28.9287605  21.9539911   8.1729432  23.5645905   3.7110623   9.4471291
  23.6287232   4.5725453   9.0348689  23.5013025   3.0984624   8.7143650
  23.0398178   5.7833755  13.0944326  23.6670217   5.4010832  13.7081850
  22.1826097   5.5647957  13.4600018  33.4392286  16.1896730  14.6998061
  33.9832190  16.8026688  14.2053016  32.8579131  16.7476309  15.2165074
  31.7249799  19.3117448   5.8313089  31.6000939  18.5107188   5.3224034
  32.3828890  19.8063642   5.3427059  23.3457967   5.6666181   5.0090229
  22.6244553   6.2802148   4.8697702  24.1351223   6.2023946   4.9306875
  33.7884708  17.1126468   7.4592639  32.8415043  16.9931820   7.3870966
  34.1367481  16.2248966   7.5418900  26.1484281   3.0020607  11.2830881
  26.6718683   3.2482904  12.0457190  25.9296614   3.8340642  10.8634018
  30.7931141  16.9079185   3.6596991  30.6456103  15.9795892   3.8404561
  31.6184634  16.9299275   3.1754066  34.3965263  17.7307743   4.7461864
  35.3211810  17.5250605   4.6086315  34.2280566  17.4824144   5.6551205
  27.3536826   3.9434302   8.9680551  27.0133646   3.1442115   9.3701231
  26.6475832   4.2436013   8.3957385  25.5291877   7.7202735   5.2299853
  25.3836457   8.0343038   6.1224135  25.0517080   8.3387636   4.6770752
  27.3888260   4.7105283   5.2780743  27.3749828   3.8146377   4.9413041
  28.1060688   4.7175947   5.9119029  29.2414390   5.1442624   7.3233870
  28.9832168   6.0659694   7.3218200  28.7099431   4.7473058   8.0134334
  20.0037539  10.2608080   8.1687514  19.4591007  11.0367888   8.3007789
  20.8816889  10.6078884   8.0106636  20.7903561   9.3877976  11.0617671
  20.0485297   9.5360611  11.6482301  20.4696305   9.6486242  10.1984420
  28.7347223  18.9293954  10.8598061  29.0434350  18.6843101  11.7320761
  29.5322705  19.1340593  10.3716931  28.7567835  21.0831864   3.0903438
  28.3172826  20.5908243   3.7836294  29.5075952  20.5404832   2.8495513
  21.2360174  17.2743405   3.0928066  22.0618194  16.9747177   2.7126709
  20.8854226  16.5051027   3.5417854  26.2041708  16.6269873   5.1625739
  25.5821717  15.9640578   4.8627967  26.8746574  16.6531005   4.4799387
  19.4368779  15.1929731   4.0516999  18.6000688  14.7651906   3.8701001
  19.4092425  15.3862175   4.9887790  26.2766235   5.1051661  14.7558245
  26.3254390   5.9813784  14.3736015  26.8188749   4.5629054  14.1829889
  34.1722718   8.4816179  12.6651418  35.0732581   8.3422644  12.3735415
  34.2470693   8.6470634  13.6049595  28.5065523   5.8583033  11.5104604
  27.6368833   6.1516599  11.2387192  28.7425004   6.4423478  12.2311868
  23.5207847  11.2038974  -0.3554731  23.2753889  10.3001304  -0.1574521
  23.6903762  11.2056124  -1.2975253  29.5336111  13.0600486  14.9112657
  30.4539120  13.2379085  15.1052703  29.4985694  12.1156531  14.7592356
  18.7518276   8.2539079   3.8365931  18.4321060   7.4004388   3.5440305
  18.2051704   8.4687657   4.5923899  22.5298184  10.9701520   7.5535438
  22.7484193  11.9018628   7.5723472  22.9423957  10.6109495   8.3390242
  27.4026049   6.5434726  16.9438187  27.3022776   7.4929083  16.8750278
  27.1847591   6.2152965  16.0714257  18.6206536  11.8741991   5.8059053
  17.9270007  11.4595944   5.2929007  19.3679527  11.9162527   5.2092472
  27.2657319   9.9731865  15.7603248  26.7824401  10.7732225  15.9667137
  27.3518258   9.9839810  14.8070692  20.5343278  11.8060245   3.6825068
  20.5113967  11.9047932   2.7306951  20.8443915  12.6525395   4.0042234
  23.1930656  13.8636400   7.7971682  24.1473910  13.8320342   7.7301614
  22.9943180  13.4027023   8.6121908  23.7830038  12.4337516  10.3642480
  24.6022927  12.9281594  10.3877317  24.0566846  11.5169484  10.3360047
  21.5480885  19.4056019   4.8141880  21.4135353  18.6456420   4.2479878
  21.1312947  20.1296919   4.3470669  24.7050011  20.3025336   5.0260323
  24.5882395  21.2470769   4.9239013  23.8842457  19.9998898   5.4146122
  19.0364953   6.7675650  11.0634677  19.6823816   6.2574604  11.5521902
  18.8282104   7.5044331  11.6378102  31.5618345  13.8356497  16.5626818
  32.4309505  14.0097149  16.2013452  31.0825096  14.6550914  16.4402547
  25.7304525  20.9553598   8.2416251  26.6331772  20.9877208   8.5582746
  25.5041895  20.0254049   8.2562587  27.4858127  19.7084585   4.9026330
  26.5353758  19.7086446   4.7890702  27.7890613  18.9617319   4.3862364
  23.3762444   3.9143267  15.1609691  24.2393905   3.5580071  15.3713016
  22.8027854   3.5757161  15.8485095  30.2345877  22.9405504   7.1495327
  30.4853916  23.8252514   7.4152903  30.7705426  22.7610105   6.3770418
  33.9953244  23.9238230  12.0238149  33.8806759  23.0223487  12.3245248
  33.1397761  24.1701926  11.6722966  34.7737790  21.8943815   8.9541555
  35.4460844  21.6861177   8.3054204  33.9467577  21.6965901   8.5146787
  32.2515643  21.0027603   8.1076306  32.1673832  20.3953272   7.3726716
  31.4298350  21.4936621   8.1085802  27.0248897  24.1938000   5.9508749
  27.0632997  23.6601590   6.7445867  26.5189190  23.6673205   5.3319726
  34.4039660  19.0402540   9.4471291  34.4680986  19.9017371   9.0348689
  34.3406780  18.4276542   8.7143650  33.8791932  21.1125673  13.0944326
  34.5063971  20.7302750  13.7081850  33.0219851  20.8939875  13.4600018
  30.8431293  25.5899997   8.1687514  30.2984761  26.3659805   8.3007789
  31.7210643  25.9370802   8.0106636  31.6297315  24.7169894  11.0617671
  30.8879051  24.8652529  11.6482301  31.3090059  24.9778159  10.1984420
  34.6223793  27.7629433  10.3642480  35.4416682  28.2573512  10.3877317
  34.8960601  26.8461402  10.3360047  29.8758707  22.0967567  11.0634677
  30.5217571  21.5866521  11.5521902  29.6675858  22.8336249  11.6378102
  34.2156198  19.2435184  15.1609691  35.0787660  18.8871989  15.3713016
  33.6421609  18.9049079  15.8485095   4.8185497  30.8717770  17.2212969
   5.5510669  30.3016987  17.4550799   4.0624853  30.4839370  17.6619475
   2.3410917  24.5839344  21.6807578   2.0094242  25.4534755  21.4568793
   1.7456531  24.2675628  22.3601608   2.2339581  29.3034430  18.7600928
   1.3256458  29.2349838  18.4659689   2.1827177  29.7806375  19.5882753
   4.1001227  27.5050868  20.5378802   3.4575607  27.7983402  19.8918596
   3.5956156  27.3903789  21.3431998   1.2381715  21.6902484  16.3996629
   1.5440592  20.8299848  16.1122544   1.9634320  22.2820104  16.1995623
   2.8144745  29.9118444  21.5697186   3.7662168  30.0116542  21.5909410
   2.6448195  29.1196713  22.0795271   5.4427311  29.9235607  20.7297769
   4.9266360  29.1394064  20.5427698   6.3267260  29.5954324  20.8944289
   3.1038038  23.6676623  16.6893582   2.9062859  23.3591711  17.5736914
   3.7137744  24.3938262  16.8191512   9.1924670  32.3348433  20.4219974
   8.4657833  32.2004398  19.8136466   8.7771957  32.6425262  21.2276692
   2.2390492  25.6586055  13.9468777   1.6589161  26.3170859  13.5646830
   1.9726425  24.8363400  13.5356195   4.3729906  27.8432666  16.7179465
   5.1490296  28.3329119  16.9904082   3.6478040  28.2690721  17.1751334
   6.8102465  28.5560286  17.7753406   7.4046956  28.3156022  17.0646714
   6.8829048  27.8367416  18.4026942   4.8061200  29.1230413  14.0425535
   4.5498134  28.7227049  14.8733743   4.1814068  29.8374207  13.9175675
   9.1173537  31.8626486  16.5496827   8.5573095  31.9319676  17.3228389
   8.5117041  31.6867471  15.8296323   1.4951138  11.8216380   9.2963256
   1.7068033  12.4648139   8.6197637   1.4480886  10.9878696   8.8285186
   2.6096966  14.6988335   7.4685614   3.4314410  14.2968522   7.1868295
   2.6059369  14.5956569   8.4201729   4.8036484  13.2632247   5.9384000
   5.2372991  13.1707536   6.7867054   5.5168065  13.2389747   5.3004016
   5.6652034  13.3055948   8.4716885   5.8587924  14.2101758   8.7176160
   5.5652652  12.8463367   9.3055470   2.4359349  16.4881813  12.1234248
   2.3771895  15.8041033  11.4564831   2.8378867  17.2300803  11.6714874
   2.4376756  14.4521397  10.3548228   1.5503535  14.1147319  10.4774626
   3.0075307  13.7204428  10.5916993   1.8783999  17.7307743   4.7461861
   2.8030547  17.5250605   4.6086312   1.7099303  17.4824144   5.6551202
   4.2439817  15.6492784  14.0359379   3.4535361  15.6316923  13.4963879
   4.0073172  16.1881078  14.7908416   4.3637692  12.4985251  11.3492108
   4.4135697  12.3335258  12.2907631   4.2551616  11.6312510  10.9589989
   1.6541455   8.4816179  12.6651415   2.5551317   8.3422644  12.3735412
   1.7289429   8.6470634  13.6049592   5.8655889  14.9182192  11.5934129
   5.5740697  15.2812173  12.4297590   5.2528020  14.2049200  11.4147461
   4.1143077  10.0414807  10.0614187   4.5897199  10.2342453   9.2533039
   3.1908643  10.0973993   9.8157571   5.2932824  10.1386687   7.4084793
   5.2609144   9.2002687   7.5944476   5.9033448  10.2170723   6.6750617
  11.1109374  11.2002693   6.5490829  11.8412762  10.9387982   7.1098533
  10.5016319  10.4631415   6.5892897   9.1924671   9.3410556   7.1465281
   8.4657835   9.2066521   6.5381772   8.7771958   9.6487385   7.9521999
  10.7029557  25.5445123   5.9672089  11.3407967  25.4251870   5.2635429
  10.5850400  26.4925967   6.0260041   7.5119263  25.4972551   5.9033614
   7.1737775  25.3813616   5.0154149   8.3809032  25.0963716   5.8834620
   7.9939046  26.6507403  11.8619819   7.9827687  26.2560201  10.9900323
   8.1559686  25.9173475  12.4553591   4.7146308  29.4344515  10.8099003
   4.4236174  30.3390145  10.6945670   5.3503292  29.4761042  11.5243073
   5.6402514  26.8121363   7.4000363   6.2366087  26.5877386   6.6857326
   5.6977486  26.0706109   8.0025811  10.2570826  23.2696577   3.0425297
  11.0433915  22.8516000   2.6915714  10.5209530  24.1742669   3.2106946
  15.6579253  23.2071810   3.9458276  16.3904425  22.6371027   4.1796105
  14.9018609  22.8193410   4.3864781  13.1804673  16.9193384   8.4052884
  12.8487998  17.7888795   8.1814099  12.5850287  16.6029668   9.0846915
   9.6736193  29.1205930   7.8048797   9.3736916  30.0230969   7.6964604
   9.3287252  28.8538113   8.6569950  13.0733336  21.6388470   5.4846234
  12.1650214  21.5703879   5.1904995  13.0220932  22.1160415   6.3128060
   7.1474202  23.0578116  13.4281132   6.3707536  23.6172036  13.4183996
   7.7864765  23.5434899  13.9496002  14.9394983  19.8404909   7.2624108
  14.2969363  20.1337442   6.6163903  14.4349911  19.7257829   8.0677305
   5.4020575  25.8663569  12.9899099   6.1435259  26.4048613  12.7133922
   4.6957560  26.4929858  13.1470650  10.8775914  28.0092710  11.5871260
  11.2859270  27.5675120  10.8425892  10.1553176  27.4345337  11.8405453
   7.2306984  22.9465317   8.9604817   8.0768179  23.3704730   9.1039466
   7.1705622  22.2898941   9.6543380  11.2004729  28.5693900   5.3423549
  10.5713591  28.7339614   4.6399617  10.8130391  28.9835510   6.1134513
  15.0793961  29.5048338   2.6967913  14.3944999  29.8847240   2.1464946
  15.1637810  30.1143665   3.4299861  10.3806430  20.6069685  10.6185991
  10.1367361  21.3611745  10.0820266  10.6566360  20.9855032  11.4533238
  12.3344892  27.1508297   9.2963256  12.5461788  27.7940057   8.6197637
  12.2874641  26.3170614   8.8285186   9.9371121  19.7626118   6.1999828
   9.0755600  20.0607371   6.4916566   9.9633556  19.9796517   5.2680861
   4.1381938  23.0203217  13.7914409   3.5080599  23.7019498  14.0249805
   4.0318026  22.9086299  12.8467547  13.4490720  30.0280253   7.4685614
  14.2708164  29.6260440   7.1868295  13.4453123  29.9248487   8.4201729
   7.2147324  29.5764296   9.6246324   7.2791756  30.0384703  10.4604496
   6.5058248  28.9461661   9.7528634  21.5396713  26.3719001   3.8170585
  20.7860422  25.8026399   3.6614590  21.6744255  26.3381666   4.7641220
   3.4162681  17.3223983  16.1539660   3.0229627  16.7690182  16.8287304
   4.2328821  17.6334562  16.5446177   6.3330642  18.7381862  13.7459916
   7.0740355  19.3389016  13.6664379   6.5648565  17.9959500  13.1877959
   8.5563818  31.8655970  13.6225647   8.1127672  31.0792349  13.3046551
   9.2181031  32.0535120  12.9569537  10.6545056  32.1458770  11.6507048
  10.6363531  32.9667651  11.1587317  11.5764976  32.0212845  11.8757189
   7.1118110  29.6602899  12.4930556   7.6446447  28.8991188  12.2629864
   6.5832191  29.3676551  13.2354711  10.2787805  14.7662965   8.0224198
   9.9352074  15.6564607   7.9463308  10.6466768  14.5764623   7.1593783
   7.8285199  19.6021277   1.5881871   6.9726795  19.2128128   1.4087510
   8.2412150  19.6813238   0.7281657   9.3584345  17.1367620   5.9873431
   8.8549141  17.0997756   5.1741236   9.6514952  18.0460363   6.0470088
   5.6027231  17.2206350   4.9939613   6.4680228  17.0249159   4.6345502
   5.6704740  16.9916702   5.9208970  13.4563669  26.9837912   5.1216414
  12.7987343  27.6737174   5.2096543  14.2604068  27.3734344   5.4650401
  12.2669128  25.3382285   3.1720356  12.7801009  25.9712277   3.6742066
  12.9170351  24.7383481   2.8063716   8.7449958  22.8131741   5.4178697
   7.8272520  23.0346688   5.2600385   9.1610102  22.8878051   4.5590404
   9.5285006  24.2123156   0.5481377  10.2756825  24.7244553   0.2388499
   9.7976596  23.8907209   1.4085771  11.9763843  21.2480273   2.5300166
  11.2386600  20.7357659   2.8610409  12.2290617  20.8080654   1.7183443
  12.0775471  14.0256525   3.1241936  12.3834347  13.1653888   2.8367851
  12.8028075  14.6174145   2.9240929   6.3496550  24.3210318   3.6318127
   6.4045160  23.3684154   3.5560603   5.5387752  24.4769757   4.1159425
   9.8863122  23.4029202  10.2223399  10.2412510  23.6300675  11.0817865
  10.5335253  23.7347579   9.6000655   3.7802985  20.5105733   7.0069740
   4.4202364  20.3694492   6.3092704   2.9480516  20.2240246   6.6308342
  15.6430239  28.5924165   5.9384000  16.0766745  28.4999454   6.7867054
  16.3561819  28.5681665   5.3004016   9.3758133  32.1926259   7.4717101
   9.4295156  32.7617195   8.2394816   8.5072915  32.3628144   7.1071138
   2.2556527  21.8943815   8.9541552   2.9279580  21.6861177   8.3054201
   1.4286313  21.6965901   8.5146784  16.5045788  28.6347865   8.4716885
  16.6981678  29.5393676   8.7176160  16.4046406  28.1755284   9.3055470
   8.1582099  18.5205756  10.9707213   7.5110014  19.2195706  10.8771689
   8.9283114  18.9541900  11.3383461  11.5660897  28.7854608  14.0457766
  11.4146403  28.5565160  13.1287850  11.5565576  29.7425210  14.0589111
   8.3346233  26.3586521   9.0304032   9.2638293  26.5097680   8.8573000
   7.9137263  26.4470542   8.1752679   2.6584024  25.1686418   9.7143989
   2.5203822  24.4366657  10.3155528   3.5688948  25.0795318   9.4328177
   5.2866325  24.8806377   9.2027669   5.9965943  24.2399569   9.1614287
   5.2435633  25.1319272  10.1253849  13.2753103  31.8173731  12.1234248
  13.2165650  31.1332951  11.4564831  13.6772622  32.5592721  11.6714874
   3.9995259  21.8671595  11.0223308   3.4632616  21.4162334  11.6744904
   3.4111967  22.0017504  10.2793772  13.2770511  29.7813315  10.3548228
  12.3897289  29.4439236  10.4774626  13.8469062  29.0496346  10.5916993
   9.9058094  19.4881166   3.4746498  10.4026793  18.7351129   3.1547568
   9.1345075  19.5245483   2.9089707  17.7587851  25.1921532   5.1164789
  17.7477727  26.0746247   4.7458722  16.8905231  24.8393083   4.9219326
   6.4893063  21.6298549   3.2018182   6.1190850  21.0769590   3.8899088
   6.9852155  21.0256683   2.6493182  14.3760426  24.0870173   1.5834955
  14.8420878  24.9198165   1.5095258  14.8267926  23.6215154   2.2880214
  12.3477089  16.4550760   5.6225857  11.4340168  16.6854987   5.7908063
  12.7770190  16.5389204   6.4739889  12.1183547  24.6440652   8.1225751
  11.4654997  24.8916559   7.4678203  12.4963927  23.8304790   7.7888228
   8.1671120  25.3860463  14.6091788   7.4911757  25.2854592  15.2794163
   8.9898754  25.2299677  15.0727785   1.8858396  19.0402540   9.4471288
   1.9499723  19.9017371   9.0348686   1.8225516  18.4276542   8.7143647
  11.7604777  31.5188648  14.6998058  12.3044681  32.1318606  14.2053013
  11.1791622  32.0768226  15.2165071  12.1097199  32.4418386   7.4592636
  11.1627534  32.3223737   7.3870963  12.4579972  31.5540884   7.5418897
   4.4696772  18.3312525  11.2830878   4.9931174  18.5774821  12.0457187
   4.2509105  19.1632560  10.8634015  12.7177754  33.0599661   4.7461861
  13.6424301  32.8542522   4.6086312  12.5493057  32.8116062   5.6551202
   5.6749317  19.2726220   8.9680548   5.3346137  18.4734033   9.3701228
   4.9688323  19.5727931   8.3957381   6.3265789  16.3575532   7.4207871
   7.1491858  15.8836011   7.2986762   6.5703852  17.1366016   7.9206558
   5.7100751  20.0397201   5.2780739   5.6962319  19.1438294   4.9413037
   6.4273179  20.0467865   5.9119026   7.5626881  20.4734541   7.3233867
   7.3044659  21.3951612   7.3218197   7.0311922  20.0764976   8.0134331
   7.9828837  16.6066492   3.6835029   8.0050534  16.6705825   2.7287009
   8.3996896  15.7671000   3.8775536  18.3612461  26.3421751   1.7214252
  18.8043607  25.5929077   1.3233375  17.4838971  26.3331888   1.3387984
   4.5978726  20.4343579  14.7558242   4.6466881  21.3105702  14.3736012
   5.1401240  19.8920972  14.1829885  15.0833572  30.9784702  14.0359379
  14.2929115  30.9608841  13.4963879  14.8466926  31.5172996  14.7908416
  15.2031447  27.8277168  11.3492108  15.2529452  27.6627176  12.2907631
  15.0945370  26.9604427  10.9589989  12.4935209  23.8108096  12.6651415
  13.3945072  23.6714561  12.3735412  12.5683184  23.9762551  13.6049592
   6.8278014  21.1874951  11.5104601   5.9581324  21.4808517  11.2387189
   7.0637495  21.7715396  12.2311865  16.7049644  30.2474110  11.5934129
  16.4134452  30.6104090  12.4297590  16.0921775  29.5341118  11.4147461
  17.9045326  27.8126990   4.1136700  18.7392217  28.2516794   4.2774260
  18.0404455  27.3365643   3.2944945  14.9536832  25.3706724  10.0614187
  15.4290953  25.5634371   9.2533039  14.0302397  25.4265910   9.8157571
   9.5317048  17.4054568   9.0270021  10.0498992  18.1415595   8.7016510
   9.1772181  17.7118561   9.8616780   9.7829642  13.8254851   4.5470918
  10.0631396  13.1578040   5.1731344  10.5680249  14.0183946   4.0345582
  13.6538501  22.2472485   8.2942493  14.6055924  22.3470582   8.3154717
  13.4841951  21.4550753   8.8040577  11.6752880  19.3328068   8.4801894
  11.0802812  19.6133081   7.7848383  11.3902577  19.8221969   9.2518635
  16.1326579  25.4678604   7.4084793  16.1002899  24.5294605   7.5944476
  16.7427202  25.5462641   6.6750617  16.2821067  22.2589648   7.4543076
  15.7660116  21.4748104   7.2673005  17.1661016  21.9308364   7.6189595
  13.9431794  16.0030663   3.4138888  13.7456615  15.6945751   4.2982220
  14.5531500  16.7292302   3.5436818  21.9503128  26.5294611   6.5490829
  22.6806517  26.2679899   7.1098533  21.3410074  25.7923333   6.5892897
  20.0318426  24.6702474   7.1465281  19.3051589  24.5358439   6.5381772
  19.6165712  24.9779302   7.9521999   7.8548602  28.3892403  14.9112654
   8.7751611  28.5671002  15.1052700   7.8198185  27.4448449  14.7592353
   5.7238540  21.8726644  16.9438184   5.6235267  22.8221001  16.8750275
   5.5060082  21.5444883  16.0714254  13.0784248  17.9940095   0.6714084
  12.4982917  18.6524899   0.2892136  12.8120180  17.1717440   0.2601502
  11.5287814  17.3945153   2.8735404  12.0287592  17.5061688   2.0649723
  12.1723422  17.0906206   3.5136213   5.5869810  25.3023783  15.7603245
   5.1036892  26.1024143  15.9667134   5.6730749  25.3131727  14.8070689
   2.1042530  27.7629433  10.3642477   2.9235419  28.2573512  10.3877314
   2.3779337  26.8461402  10.3360044  11.8609126  20.1540186  -0.2729568
  10.9734981  20.4389836  -0.4909373  12.2763115  19.9933949  -1.1202291
  15.2123662  20.1786707   3.4424772  15.9884052  20.6683159   3.7149388
  14.4871796  20.6044761   3.8996641  17.6496220  20.8914326   4.4998712
  18.2440711  20.6510062   3.7892020  17.7222804  20.1721456   5.1272248
  15.6454955  21.4584453   0.7670842  15.3891890  21.0581089   1.5979050
  15.0207823  22.1728247   0.6420981  19.9567293  24.1980527   3.2742133
  19.3966851  24.2673716   4.0473695  19.3510797  24.0221511   2.5541630
   9.8830836  29.1648415  16.5626814  10.7521996  29.3389067  16.2013449
   9.4037587  29.9842832  16.4402544  24.0198428  32.2485302   8.4052884
  23.6881752  33.1180713   8.1814099  23.4244041  31.9321586   9.0846915
  21.2200184  35.9361603  10.6185991  20.9761116  36.6903663  10.0820266
  21.4960115  36.3146950  11.4533238  14.2556436  32.6515901  16.1539660
  13.8623381  32.0982100  16.8287304  15.0722576  32.9626479  16.5446177
  17.1724397  34.0673780  13.7459916  17.9134110  34.6680933  13.6664379
  17.4042319  33.3251418  13.1877959  21.1181559  30.0954883   8.0224198
  20.7745829  30.9856525   7.9463308  21.4860522  29.9056541   7.1593783
  16.4420986  32.5498268   4.9939613  17.3073983  32.3541077   4.6345502
  16.5098495  32.3208620   5.9208970  18.9975853  33.8497674  10.9707213
  18.3503768  34.5487623  10.8771689  19.7676869  34.2833818  11.3383461
  15.3090527  33.6604443  11.2830878  15.8324928  33.9066739  12.0457187
  15.0902860  34.4924477  10.8634015  16.5143072  34.6018138   8.9680548
  16.1739892  33.8025951   9.3701228  15.8082078  34.9019849   8.3957381
  17.1659543  31.6867450   7.4207871  17.9885613  31.2127928   7.2986762
  17.4097607  32.4657934   7.9206558  20.3710803  32.7346486   9.0270021
  20.8892747  33.4707513   8.7016510  20.0165936  33.0410479   9.8616780
  22.5146635  34.6619985   8.4801894  21.9196567  34.9424998   7.7848383
  22.2296331  35.1513886   9.2518635  18.8332802  18.9861443  -1.4134874
  18.8221443  18.5914241  -2.2854370  18.9953442  18.2527516  -0.8201103
  17.9867958  15.3932156   0.1526438  17.2101292  15.9526076   0.1429303
  18.6258521  15.8788939   0.6741308  16.2414330  18.2017610  -0.2855595
  16.9829015  18.7402654  -0.5620771  15.5351316  18.8283898  -0.1284043
  17.9511866  21.9956940  -0.7824137  18.4840203  21.2345228  -1.0124829
  17.4225947  21.7030591  -0.0399983  22.4054653  21.1208648   0.7703073
  22.2540159  20.8919200  -0.1466844  22.3959332  22.0779250   0.7834418
  19.0064876  17.7214503   1.3337094  18.3305513  17.6208633   2.0039469
  19.8292510  17.5653717   1.7973091  23.3328965  16.1462137  -0.6103279
  24.2338828  16.0068601  -0.9019281  23.4076939  16.3116591   0.3294899
  18.6942358  20.7246444   1.6357960  19.6145367  20.9025043   1.8298007
  18.6591941  19.7802489   1.4837660  16.5632296  14.2080684   3.6683490
  16.4629022  15.1575041   3.5995581  16.3453838  13.8798923   2.7959560
  16.4263566  17.6377823   2.4848552  15.9430647  18.4378183   2.6912441
  16.5124505  17.6485768   1.5315996  20.7224592  21.5002455   3.2872121
  21.5915751  21.6743107   2.9258756  20.2431343  22.3196872   3.1647850
  35.6002108  35.6002108  35.6002108 109.4712190 109.4712190 109.4712190
